 Entering Gaussian System, Link 0=g16
 Initial command:
 /cluster/chemistry/gaussian/g16/l1.exe "/scratch/js1212.13790/scratch/Gau-26957.inp" -scrdir="/scratch/js1212.13790/scratch/"
 Entering Link 1 = /cluster/chemistry/gaussian/g16/l1.exe PID=     26960.
  
 Copyright (c) 1988,1990,1992,1993,1995,1998,2003,2009,2016,
            Gaussian, Inc.  All Rights Reserved.
  
 This is part of the Gaussian(R) 16 program.  It is based on
 the Gaussian(R) 09 system (copyright 2009, Gaussian, Inc.),
 the Gaussian(R) 03 system (copyright 2003, Gaussian, Inc.),
 the Gaussian(R) 98 system (copyright 1998, Gaussian, Inc.),
 the Gaussian(R) 94 system (copyright 1995, Gaussian, Inc.),
 the Gaussian 92(TM) system (copyright 1992, Gaussian, Inc.),
 the Gaussian 90(TM) system (copyright 1990, Gaussian, Inc.),
 the Gaussian 88(TM) system (copyright 1988, Gaussian, Inc.),
 the Gaussian 86(TM) system (copyright 1986, Carnegie Mellon
 University), and the Gaussian 82(TM) system (copyright 1983,
 Carnegie Mellon University). Gaussian is a federally registered
 trademark of Gaussian, Inc.
  
 This software contains proprietary and confidential information,
 including trade secrets, belonging to Gaussian, Inc.
  
 This software is provided under written license and may be
 used, copied, transmitted, or stored only in accord with that
 written license.
  
 The following legend is applicable only to US Government
 contracts under FAR:
  
                    RESTRICTED RIGHTS LEGEND
  
 Use, reproduction and disclosure by the US Government is
 subject to restrictions as set forth in subparagraphs (a)
 and (c) of the Commercial Computer Software - Restricted
 Rights clause in FAR 52.227-19.
  
 Gaussian, Inc.
 340 Quinnipiac St., Bldg. 40, Wallingford CT 06492
  
  
 ---------------------------------------------------------------
 Warning -- This program may not be used in any manner that
 competes with the business of Gaussian, Inc. or will provide
 assistance to any competitor of Gaussian, Inc.  The licensee
 of this program is prohibited from giving any competitor of
 Gaussian, Inc. access to this program.  By using this program,
 the user acknowledges that Gaussian, Inc. is engaged in the
 business of creating and licensing software in the field of
 computational chemistry and represents and warrants to the
 licensee that it is not a competitor of Gaussian, Inc. and that
 it will not use this program in any manner prohibited above.
 ---------------------------------------------------------------
  

 Cite this work as:
 Gaussian 16, Revision A.03,
 M. J. Frisch, G. W. Trucks, H. B. Schlegel, G. E. Scuseria, 
 M. A. Robb, J. R. Cheeseman, G. Scalmani, V. Barone, 
 G. A. Petersson, H. Nakatsuji, X. Li, M. Caricato, A. V. Marenich, 
 J. Bloino, B. G. Janesko, R. Gomperts, B. Mennucci, H. P. Hratchian, 
 J. V. Ortiz, A. F. Izmaylov, J. L. Sonnenberg, D. Williams-Young, 
 F. Ding, F. Lipparini, F. Egidi, J. Goings, B. Peng, A. Petrone, 
 T. Henderson, D. Ranasinghe, V. G. Zakrzewski, J. Gao, N. Rega, 
 G. Zheng, W. Liang, M. Hada, M. Ehara, K. Toyota, R. Fukuda, 
 J. Hasegawa, M. Ishida, T. Nakajima, Y. Honda, O. Kitao, H. Nakai, 
 T. Vreven, K. Throssell, J. A. Montgomery, Jr., J. E. Peralta, 
 F. Ogliaro, M. J. Bearpark, J. J. Heyd, E. N. Brothers, K. N. Kudin, 
 V. N. Staroverov, T. A. Keith, R. Kobayashi, J. Normand, 
 K. Raghavachari, A. P. Rendell, J. C. Burant, S. S. Iyengar, 
 J. Tomasi, M. Cossi, J. M. Millam, M. Klene, C. Adamo, R. Cammi, 
 J. W. Ochterski, R. L. Martin, K. Morokuma, O. Farkas, 
 J. B. Foresman, and D. J. Fox, Gaussian, Inc., Wallingford CT, 2016.
 
 ******************************************
 Gaussian 16:  ES64L-G16RevA.03 25-Dec-2016
                 8-Nov-2018 
 ******************************************
 %rwf=/scratch/js1212.13790/2-Full-Trans-B-GPOF.rwf
 %nosave
 %nprocshared=16
 Will use up to   16 processors via shared memory.
 %mem=3000MB
 %chk=/scratch/js1212.13790/2-Full-Trans-B-GPOF.chk
 ---------------------------------------------------
 # opt freq genecp pbe1pbe EmpiricalDispersion=GD3BJ
 ---------------------------------------------------
 1/18=20,19=15,26=3,38=1/1,3;
 2/9=110,12=2,17=6,18=5,40=1/2;
 3/5=7,11=2,16=1,17=8,25=1,30=1,71=1,74=-13,124=41/1,2,3;
 4//1;
 5/5=2,38=5/2;
 6/7=2,8=2,9=2,10=2,28=1/1;
 7//1,2,3,16;
 1/18=20,19=15,26=3/3(2);
 2/9=110/2;
 99//99;
 2/9=110/2;
 3/5=7,6=1,11=2,16=1,17=8,25=1,30=1,71=1,74=-13,82=7,124=41/1,2,3;
 4/5=5,16=3,69=1/1;
 5/5=2,38=5/2;
 7//1,2,3,16;
 1/18=20,19=15,26=3/3(-5);
 2/9=110/2;
 6/7=2,8=2,9=2,10=2,19=2,28=1/1;
 99/9=1/99;
 -------------------
 Title Card Required
 -------------------
 Symbolic Z-matrix:
 Charge =  0 Multiplicity = 1
 N                    -0.7979    1.4328   -0.03621 
 C                    -2.01825   1.85475   0.32099 
 C                     0.09667   2.2643   -0.59472 
 C                    -2.40429   3.17863   0.14256 
 C                    -1.48202   4.06775  -0.4062 
 C                    -0.22135   3.61143  -0.77717 
 C                    -2.85398   0.79721   0.97678 
 H                    -3.40367   3.50512   0.43267 
 H                    -1.75016   5.11594  -0.55306 
 H                     0.51069   4.28707  -1.22126 
 C                     1.39021   1.64668  -1.02903 
 N                    -2.6975   -0.52283   0.32907 
 H                    -3.91213   1.10732   1.03139 
 H                    -2.48444   0.6815    2.00924 
 H                     1.21016   1.25831  -2.04804 
 P                     1.74046   0.07506  -0.06998 
 H                     2.20929   2.37999  -1.05414 
 Ru                   -0.40672  -0.62914   0.11752 
 C                    -3.34421  -0.54578  -1.00679 
 C                     2.9976   -0.83497  -1.18616 
 C                    -3.26574  -1.53137   1.2563 
 C                     2.59219   0.6448    1.54475 
 C                     2.20005  -1.54249  -2.28905 
 C                     3.75193  -1.90559  -0.39121 
 C                     3.99226   0.1228   -1.85195 
 C                     1.69596   1.72012   2.17108 
 C                     3.98838   1.23773   1.34877 
 C                     2.64821  -0.54059   2.51476 
 H                    -0.41417  -0.72391  -1.50388 
 H                    -2.75193   0.12054  -1.65061 
 C                    -4.83338  -0.23462  -1.05417 
 H                    -3.15779  -1.54624  -1.41813 
 H                    -2.62535  -1.508     2.15004 
 C                    -3.32524  -2.94076   0.70559 
 H                    -4.28108  -1.21396   1.5677 
 C                     0.0149   -2.39477   0.31599 
 O                    -0.2723   -0.51736   2.27397 
 H                    -0.66452   0.316     2.5582 
 H                    -2.35215  -3.2522    0.30213 
 H                    -4.08475  -3.05745  -0.08159 
 H                    -3.58914  -3.63112   1.52065 
 H                    -5.18055  -0.35402  -2.09191 
 H                    -5.06774   0.79996  -0.75989 
 H                    -5.43779  -0.91113  -0.42925 
 H                     2.90846  -1.92712  -3.04246 
 H                     1.46924  -0.87663  -2.76994 
 H                     1.63741  -2.39496  -1.88325 
 H                     4.33293  -2.52088  -1.09898 
 H                     3.0628   -2.57994   0.13931 
 H                     4.46208  -1.48534   0.3348 
 H                     4.7047   -0.46943  -2.45127 
 H                     4.57849   0.71383  -1.13648 
 H                     3.49096   0.81398  -2.54517 
 H                     4.72277   0.4966    1.00492 
 H                     4.34944   1.62732   2.31599 
 H                     3.98991   2.08066   0.64011 
 H                     3.32197  -1.33726   2.17362 
 H                     1.64587  -0.97069   2.6566 
 H                     3.01782  -0.18818   3.49281 
 H                     2.09562   1.97565   3.16695 
 H                     0.66661   1.35329   2.29496 
 H                     1.67628   2.64804   1.57878 
 O                     0.33359  -3.50626   0.47531 
 

 GradGradGradGradGradGradGradGradGradGradGradGradGradGradGradGradGradGrad
 Berny optimization.
 Initialization pass.
                           ----------------------------
                           !    Initial Parameters    !
                           ! (Angstroms and Degrees)  !
 --------------------------                            --------------------------
 ! Name  Definition              Value          Derivative Info.                !
 --------------------------------------------------------------------------------
 ! R1    R(1,2)                  1.3397         estimate D2E/DX2                !
 ! R2    R(1,3)                  1.343          estimate D2E/DX2                !
 ! R3    R(1,18)                 2.1043         estimate D2E/DX2                !
 ! R4    R(2,4)                  1.3905         estimate D2E/DX2                !
 ! R5    R(2,7)                  1.499          estimate D2E/DX2                !
 ! R6    R(3,6)                  1.3961         estimate D2E/DX2                !
 ! R7    R(3,11)                 1.4978         estimate D2E/DX2                !
 ! R8    R(4,5)                  1.3936         estimate D2E/DX2                !
 ! R9    R(4,8)                  1.0907         estimate D2E/DX2                !
 ! R10   R(5,6)                  1.3911         estimate D2E/DX2                !
 ! R11   R(5,9)                  1.0919         estimate D2E/DX2                !
 ! R12   R(6,10)                 1.0907         estimate D2E/DX2                !
 ! R13   R(7,12)                 1.4787         estimate D2E/DX2                !
 ! R14   R(7,13)                 1.104          estimate D2E/DX2                !
 ! R15   R(7,14)                 1.1027         estimate D2E/DX2                !
 ! R16   R(11,15)                1.1053         estimate D2E/DX2                !
 ! R17   R(11,16)                1.8742         estimate D2E/DX2                !
 ! R18   R(11,17)                1.0997         estimate D2E/DX2                !
 ! R19   R(12,19)                1.4843         estimate D2E/DX2                !
 ! R20   R(12,21)                1.4832         estimate D2E/DX2                !
 ! R21   R(16,18)                2.2675         estimate D2E/DX2                !
 ! R22   R(16,20)                1.9117         estimate D2E/DX2                !
 ! R23   R(16,22)                1.9124         estimate D2E/DX2                !
 ! R24   R(18,29)                1.6242         estimate D2E/DX2                !
 ! R25   R(18,36)                1.8261         estimate D2E/DX2                !
 ! R26   R(18,37)                2.1635         estimate D2E/DX2                !
 ! R27   R(19,30)                1.0997         estimate D2E/DX2                !
 ! R28   R(19,31)                1.5221         estimate D2E/DX2                !
 ! R29   R(19,32)                1.0977         estimate D2E/DX2                !
 ! R30   R(20,23)                1.534          estimate D2E/DX2                !
 ! R31   R(20,24)                1.5321         estimate D2E/DX2                !
 ! R32   R(20,25)                1.533          estimate D2E/DX2                !
 ! R33   R(21,33)                1.0997         estimate D2E/DX2                !
 ! R34   R(21,34)                1.5143         estimate D2E/DX2                !
 ! R35   R(21,35)                1.1084         estimate D2E/DX2                !
 ! R36   R(22,26)                1.5336         estimate D2E/DX2                !
 ! R37   R(22,27)                1.5295         estimate D2E/DX2                !
 ! R38   R(22,28)                1.5327         estimate D2E/DX2                !
 ! R39   R(23,45)                1.1034         estimate D2E/DX2                !
 ! R40   R(23,46)                1.0994         estimate D2E/DX2                !
 ! R41   R(23,47)                1.0991         estimate D2E/DX2                !
 ! R42   R(24,48)                1.1032         estimate D2E/DX2                !
 ! R43   R(24,49)                1.1005         estimate D2E/DX2                !
 ! R44   R(24,50)                1.0991         estimate D2E/DX2                !
 ! R45   R(25,51)                1.1034         estimate D2E/DX2                !
 ! R46   R(25,52)                1.0977         estimate D2E/DX2                !
 ! R47   R(25,53)                1.0998         estimate D2E/DX2                !
 ! R48   R(26,60)                1.1031         estimate D2E/DX2                !
 ! R49   R(26,61)                1.0998         estimate D2E/DX2                !
 ! R50   R(26,62)                1.101          estimate D2E/DX2                !
 ! R51   R(27,54)                1.0986         estimate D2E/DX2                !
 ! R52   R(27,55)                1.1035         estimate D2E/DX2                !
 ! R53   R(27,56)                1.1012         estimate D2E/DX2                !
 ! R54   R(28,57)                1.0977         estimate D2E/DX2                !
 ! R55   R(28,58)                1.0999         estimate D2E/DX2                !
 ! R56   R(28,59)                1.1034         estimate D2E/DX2                !
 ! R57   R(31,42)                1.1008         estimate D2E/DX2                !
 ! R58   R(31,43)                1.1009         estimate D2E/DX2                !
 ! R59   R(31,44)                1.1016         estimate D2E/DX2                !
 ! R60   R(34,39)                1.0985         estimate D2E/DX2                !
 ! R61   R(34,40)                1.1001         estimate D2E/DX2                !
 ! R62   R(34,41)                1.1003         estimate D2E/DX2                !
 ! R63   R(36,63)                1.1672         estimate D2E/DX2                !
 ! R64   R(37,38)                0.9639         estimate D2E/DX2                !
 ! A1    A(2,1,3)              121.509          estimate D2E/DX2                !
 ! A2    A(2,1,18)             117.2874         estimate D2E/DX2                !
 ! A3    A(3,1,18)             120.8792         estimate D2E/DX2                !
 ! A4    A(1,2,4)              121.2338         estimate D2E/DX2                !
 ! A5    A(1,2,7)              113.722          estimate D2E/DX2                !
 ! A6    A(4,2,7)              124.9638         estimate D2E/DX2                !
 ! A7    A(1,3,6)              120.0022         estimate D2E/DX2                !
 ! A8    A(1,3,11)             116.1397         estimate D2E/DX2                !
 ! A9    A(6,3,11)             123.8291         estimate D2E/DX2                !
 ! A10   A(2,4,5)              118.3082         estimate D2E/DX2                !
 ! A11   A(2,4,8)              120.3491         estimate D2E/DX2                !
 ! A12   A(5,4,8)              121.3419         estimate D2E/DX2                !
 ! A13   A(4,5,6)              119.6996         estimate D2E/DX2                !
 ! A14   A(4,5,9)              120.1925         estimate D2E/DX2                !
 ! A15   A(6,5,9)              120.1056         estimate D2E/DX2                !
 ! A16   A(3,6,5)              119.2156         estimate D2E/DX2                !
 ! A17   A(3,6,10)             119.8709         estimate D2E/DX2                !
 ! A18   A(5,6,10)             120.9058         estimate D2E/DX2                !
 ! A19   A(2,7,12)             112.283          estimate D2E/DX2                !
 ! A20   A(2,7,13)             110.9679         estimate D2E/DX2                !
 ! A21   A(2,7,14)             107.2666         estimate D2E/DX2                !
 ! A22   A(12,7,13)            111.9534         estimate D2E/DX2                !
 ! A23   A(12,7,14)            106.3194         estimate D2E/DX2                !
 ! A24   A(13,7,14)            107.7201         estimate D2E/DX2                !
 ! A25   A(3,11,15)            105.7562         estimate D2E/DX2                !
 ! A26   A(3,11,16)            111.0272         estimate D2E/DX2                !
 ! A27   A(3,11,17)            112.0193         estimate D2E/DX2                !
 ! A28   A(15,11,16)           101.9801         estimate D2E/DX2                !
 ! A29   A(15,11,17)           109.5482         estimate D2E/DX2                !
 ! A30   A(16,11,17)           115.5747         estimate D2E/DX2                !
 ! A31   A(7,12,19)            111.2175         estimate D2E/DX2                !
 ! A32   A(7,12,21)            107.0165         estimate D2E/DX2                !
 ! A33   A(19,12,21)           112.6557         estimate D2E/DX2                !
 ! A34   A(11,16,18)            97.2257         estimate D2E/DX2                !
 ! A35   A(11,16,20)           102.9036         estimate D2E/DX2                !
 ! A36   A(11,16,22)           105.3951         estimate D2E/DX2                !
 ! A37   A(18,16,20)           121.5452         estimate D2E/DX2                !
 ! A38   A(18,16,22)           116.3875         estimate D2E/DX2                !
 ! A39   A(20,16,22)           109.9945         estimate D2E/DX2                !
 ! A40   A(1,18,16)             82.2808         estimate D2E/DX2                !
 ! A41   A(1,18,29)             89.0484         estimate D2E/DX2                !
 ! A42   A(1,18,37)             91.9335         estimate D2E/DX2                !
 ! A43   A(16,18,29)            86.5553         estimate D2E/DX2                !
 ! A44   A(16,18,36)            95.2            estimate D2E/DX2                !
 ! A45   A(16,18,37)            90.4321         estimate D2E/DX2                !
 ! A46   A(29,18,36)            93.0462         estimate D2E/DX2                !
 ! A47   A(36,18,37)            85.8298         estimate D2E/DX2                !
 ! A48   A(12,19,30)           106.4316         estimate D2E/DX2                !
 ! A49   A(12,19,31)           116.8158         estimate D2E/DX2                !
 ! A50   A(12,19,32)           106.1022         estimate D2E/DX2                !
 ! A51   A(30,19,31)           112.635          estimate D2E/DX2                !
 ! A52   A(30,19,32)           103.969          estimate D2E/DX2                !
 ! A53   A(31,19,32)           109.9272         estimate D2E/DX2                !
 ! A54   A(16,20,23)           107.3048         estimate D2E/DX2                !
 ! A55   A(16,20,24)           110.701          estimate D2E/DX2                !
 ! A56   A(16,20,25)           112.5111         estimate D2E/DX2                !
 ! A57   A(23,20,24)           107.8629         estimate D2E/DX2                !
 ! A58   A(23,20,25)           108.2561         estimate D2E/DX2                !
 ! A59   A(24,20,25)           110.029          estimate D2E/DX2                !
 ! A60   A(12,21,33)           105.695          estimate D2E/DX2                !
 ! A61   A(12,21,34)           114.8704         estimate D2E/DX2                !
 ! A62   A(12,21,35)           109.3815         estimate D2E/DX2                !
 ! A63   A(33,21,34)           109.7675         estimate D2E/DX2                !
 ! A64   A(33,21,35)           107.3979         estimate D2E/DX2                !
 ! A65   A(34,21,35)           109.4321         estimate D2E/DX2                !
 ! A66   A(16,22,26)           107.065          estimate D2E/DX2                !
 ! A67   A(16,22,27)           114.4472         estimate D2E/DX2                !
 ! A68   A(16,22,28)           108.6767         estimate D2E/DX2                !
 ! A69   A(26,22,27)           108.2994         estimate D2E/DX2                !
 ! A70   A(26,22,28)           107.7691         estimate D2E/DX2                !
 ! A71   A(27,22,28)           110.3374         estimate D2E/DX2                !
 ! A72   A(20,23,45)           108.5366         estimate D2E/DX2                !
 ! A73   A(20,23,46)           112.3801         estimate D2E/DX2                !
 ! A74   A(20,23,47)           111.0051         estimate D2E/DX2                !
 ! A75   A(45,23,46)           109.8306         estimate D2E/DX2                !
 ! A76   A(45,23,47)           108.0841         estimate D2E/DX2                !
 ! A77   A(46,23,47)           106.9161         estimate D2E/DX2                !
 ! A78   A(20,24,48)           108.4308         estimate D2E/DX2                !
 ! A79   A(20,24,49)           111.7174         estimate D2E/DX2                !
 ! A80   A(20,24,50)           113.1834         estimate D2E/DX2                !
 ! A81   A(48,24,49)           107.2956         estimate D2E/DX2                !
 ! A82   A(48,24,50)           107.2628         estimate D2E/DX2                !
 ! A83   A(49,24,50)           108.691          estimate D2E/DX2                !
 ! A84   A(20,25,51)           108.6332         estimate D2E/DX2                !
 ! A85   A(20,25,52)           113.5688         estimate D2E/DX2                !
 ! A86   A(20,25,53)           111.7559         estimate D2E/DX2                !
 ! A87   A(51,25,52)           107.3494         estimate D2E/DX2                !
 ! A88   A(51,25,53)           106.8135         estimate D2E/DX2                !
 ! A89   A(52,25,53)           108.4143         estimate D2E/DX2                !
 ! A90   A(22,26,60)           108.6274         estimate D2E/DX2                !
 ! A91   A(22,26,61)           111.0457         estimate D2E/DX2                !
 ! A92   A(22,26,62)           112.4382         estimate D2E/DX2                !
 ! A93   A(60,26,61)           108.3421         estimate D2E/DX2                !
 ! A94   A(60,26,62)           107.2725         estimate D2E/DX2                !
 ! A95   A(61,26,62)           108.9644         estimate D2E/DX2                !
 ! A96   A(22,27,54)           112.8807         estimate D2E/DX2                !
 ! A97   A(22,27,55)           108.8591         estimate D2E/DX2                !
 ! A98   A(22,27,56)           112.3621         estimate D2E/DX2                !
 ! A99   A(54,27,55)           107.0857         estimate D2E/DX2                !
 ! A100  A(54,27,56)           108.3031         estimate D2E/DX2                !
 ! A101  A(55,27,56)           107.0588         estimate D2E/DX2                !
 ! A102  A(22,28,57)           112.7705         estimate D2E/DX2                !
 ! A103  A(22,28,58)           110.5319         estimate D2E/DX2                !
 ! A104  A(22,28,59)           109.0396         estimate D2E/DX2                !
 ! A105  A(57,28,58)           108.3981         estimate D2E/DX2                !
 ! A106  A(57,28,59)           107.558          estimate D2E/DX2                !
 ! A107  A(58,28,59)           108.4126         estimate D2E/DX2                !
 ! A108  A(19,31,42)           108.4057         estimate D2E/DX2                !
 ! A109  A(19,31,43)           113.0847         estimate D2E/DX2                !
 ! A110  A(19,31,44)           113.1791         estimate D2E/DX2                !
 ! A111  A(42,31,43)           106.6671         estimate D2E/DX2                !
 ! A112  A(42,31,44)           107.1665         estimate D2E/DX2                !
 ! A113  A(43,31,44)           107.9807         estimate D2E/DX2                !
 ! A114  A(21,34,39)           111.262          estimate D2E/DX2                !
 ! A115  A(21,34,40)           112.7111         estimate D2E/DX2                !
 ! A116  A(21,34,41)           108.9048         estimate D2E/DX2                !
 ! A117  A(39,34,40)           108.5852         estimate D2E/DX2                !
 ! A118  A(39,34,41)           107.8581         estimate D2E/DX2                !
 ! A119  A(40,34,41)           107.3337         estimate D2E/DX2                !
 ! A120  A(18,37,38)           108.258          estimate D2E/DX2                !
 ! A121  L(1,18,36,16,-1)      177.4808         estimate D2E/DX2                !
 ! A122  L(29,18,37,1,-1)      180.9819         estimate D2E/DX2                !
 ! A123  L(18,36,63,20,-1)     178.2851         estimate D2E/DX2                !
 ! A124  L(1,18,36,16,-2)      177.7444         estimate D2E/DX2                !
 ! A125  L(29,18,37,1,-2)      183.1734         estimate D2E/DX2                !
 ! A126  L(18,36,63,20,-2)     177.4403         estimate D2E/DX2                !
 ! D1    D(3,1,2,4)             -0.7933         estimate D2E/DX2                !
 ! D2    D(3,1,2,7)           -177.6875         estimate D2E/DX2                !
 ! D3    D(18,1,2,4)          -174.3063         estimate D2E/DX2                !
 ! D4    D(18,1,2,7)             8.7996         estimate D2E/DX2                !
 ! D5    D(2,1,3,6)              1.987          estimate D2E/DX2                !
 ! D6    D(2,1,3,11)          -176.13           estimate D2E/DX2                !
 ! D7    D(18,1,3,6)           175.2686         estimate D2E/DX2                !
 ! D8    D(18,1,3,11)           -2.8484         estimate D2E/DX2                !
 ! D9    D(2,1,18,16)         -164.4376         estimate D2E/DX2                !
 ! D10   D(2,1,18,29)          108.9098         estimate D2E/DX2                !
 ! D11   D(2,1,18,37)          -74.2635         estimate D2E/DX2                !
 ! D12   D(3,1,18,16)           22.0062         estimate D2E/DX2                !
 ! D13   D(3,1,18,29)          -64.6463         estimate D2E/DX2                !
 ! D14   D(3,1,18,37)          112.1803         estimate D2E/DX2                !
 ! D15   D(1,2,4,5)             -0.7208         estimate D2E/DX2                !
 ! D16   D(1,2,4,8)            179.6071         estimate D2E/DX2                !
 ! D17   D(7,2,4,5)            175.8091         estimate D2E/DX2                !
 ! D18   D(7,2,4,8)             -3.863          estimate D2E/DX2                !
 ! D19   D(1,2,7,12)           -40.2165         estimate D2E/DX2                !
 ! D20   D(1,2,7,13)          -166.3532         estimate D2E/DX2                !
 ! D21   D(1,2,7,14)            76.2307         estimate D2E/DX2                !
 ! D22   D(4,2,7,12)           143.0243         estimate D2E/DX2                !
 ! D23   D(4,2,7,13)            16.8875         estimate D2E/DX2                !
 ! D24   D(4,2,7,14)          -100.5286         estimate D2E/DX2                !
 ! D25   D(1,3,6,5)             -1.6445         estimate D2E/DX2                !
 ! D26   D(1,3,6,10)           179.351          estimate D2E/DX2                !
 ! D27   D(11,3,6,5)           176.3206         estimate D2E/DX2                !
 ! D28   D(11,3,6,10)           -2.6839         estimate D2E/DX2                !
 ! D29   D(1,3,11,15)           85.8663         estimate D2E/DX2                !
 ! D30   D(1,3,11,16)          -23.9815         estimate D2E/DX2                !
 ! D31   D(1,3,11,17)         -154.8508         estimate D2E/DX2                !
 ! D32   D(6,3,11,15)          -92.1707         estimate D2E/DX2                !
 ! D33   D(6,3,11,16)          157.9816         estimate D2E/DX2                !
 ! D34   D(6,3,11,17)           27.1122         estimate D2E/DX2                !
 ! D35   D(2,4,5,6)              1.0052         estimate D2E/DX2                !
 ! D36   D(2,4,5,9)           -179.553          estimate D2E/DX2                !
 ! D37   D(8,4,5,6)           -179.3261         estimate D2E/DX2                !
 ! D38   D(8,4,5,9)              0.1156         estimate D2E/DX2                !
 ! D39   D(4,5,6,3)              0.1461         estimate D2E/DX2                !
 ! D40   D(4,5,6,10)           179.14           estimate D2E/DX2                !
 ! D41   D(9,5,6,3)           -179.2961         estimate D2E/DX2                !
 ! D42   D(9,5,6,10)            -0.3022         estimate D2E/DX2                !
 ! D43   D(2,7,12,19)          -71.2594         estimate D2E/DX2                !
 ! D44   D(2,7,12,21)          165.3096         estimate D2E/DX2                !
 ! D45   D(13,7,12,19)          54.3416         estimate D2E/DX2                !
 ! D46   D(13,7,12,21)         -69.0895         estimate D2E/DX2                !
 ! D47   D(14,7,12,19)         171.7259         estimate D2E/DX2                !
 ! D48   D(14,7,12,21)          48.2948         estimate D2E/DX2                !
 ! D49   D(3,11,16,18)          34.9638         estimate D2E/DX2                !
 ! D50   D(3,11,16,20)         159.7187         estimate D2E/DX2                !
 ! D51   D(3,11,16,22)         -85.0086         estimate D2E/DX2                !
 ! D52   D(15,11,16,18)        -77.3057         estimate D2E/DX2                !
 ! D53   D(15,11,16,20)         47.4492         estimate D2E/DX2                !
 ! D54   D(15,11,16,22)        162.7219         estimate D2E/DX2                !
 ! D55   D(17,11,16,18)        163.9596         estimate D2E/DX2                !
 ! D56   D(17,11,16,20)        -71.2854         estimate D2E/DX2                !
 ! D57   D(17,11,16,22)         43.9873         estimate D2E/DX2                !
 ! D58   D(7,12,19,30)          68.3527         estimate D2E/DX2                !
 ! D59   D(7,12,19,31)         -58.422          estimate D2E/DX2                !
 ! D60   D(7,12,19,32)         178.662          estimate D2E/DX2                !
 ! D61   D(21,12,19,30)       -171.5003         estimate D2E/DX2                !
 ! D62   D(21,12,19,31)         61.725          estimate D2E/DX2                !
 ! D63   D(21,12,19,32)        -61.191          estimate D2E/DX2                !
 ! D64   D(7,12,21,33)         -64.7631         estimate D2E/DX2                !
 ! D65   D(7,12,21,34)         174.0744         estimate D2E/DX2                !
 ! D66   D(7,12,21,35)          50.5837         estimate D2E/DX2                !
 ! D67   D(19,12,21,33)        172.6982         estimate D2E/DX2                !
 ! D68   D(19,12,21,34)         51.5357         estimate D2E/DX2                !
 ! D69   D(19,12,21,35)        -71.9549         estimate D2E/DX2                !
 ! D70   D(11,16,18,1)         -26.8727         estimate D2E/DX2                !
 ! D71   D(11,16,18,29)         62.6328         estimate D2E/DX2                !
 ! D72   D(11,16,18,36)        155.3828         estimate D2E/DX2                !
 ! D73   D(11,16,18,37)       -118.7654         estimate D2E/DX2                !
 ! D74   D(20,16,18,1)        -136.8692         estimate D2E/DX2                !
 ! D75   D(20,16,18,29)        -47.3637         estimate D2E/DX2                !
 ! D76   D(20,16,18,36)         45.3864         estimate D2E/DX2                !
 ! D77   D(20,16,18,37)        131.2382         estimate D2E/DX2                !
 ! D78   D(22,16,18,1)          84.3274         estimate D2E/DX2                !
 ! D79   D(22,16,18,29)        173.8329         estimate D2E/DX2                !
 ! D80   D(22,16,18,36)        -93.417          estimate D2E/DX2                !
 ! D81   D(22,16,18,37)         -7.5652         estimate D2E/DX2                !
 ! D82   D(11,16,20,23)        -81.0531         estimate D2E/DX2                !
 ! D83   D(11,16,20,24)        161.4829         estimate D2E/DX2                !
 ! D84   D(11,16,20,25)         37.9136         estimate D2E/DX2                !
 ! D85   D(18,16,20,23)         25.9276         estimate D2E/DX2                !
 ! D86   D(18,16,20,24)        -91.5363         estimate D2E/DX2                !
 ! D87   D(18,16,20,25)        144.8943         estimate D2E/DX2                !
 ! D88   D(22,16,20,23)        167.035          estimate D2E/DX2                !
 ! D89   D(22,16,20,24)         49.571          estimate D2E/DX2                !
 ! D90   D(22,16,20,25)        -73.9983         estimate D2E/DX2                !
 ! D91   D(11,16,22,26)         52.1033         estimate D2E/DX2                !
 ! D92   D(11,16,22,27)        -67.9194         estimate D2E/DX2                !
 ! D93   D(11,16,22,28)        168.2548         estimate D2E/DX2                !
 ! D94   D(18,16,22,26)        -54.291          estimate D2E/DX2                !
 ! D95   D(18,16,22,27)       -174.3137         estimate D2E/DX2                !
 ! D96   D(18,16,22,28)         61.8605         estimate D2E/DX2                !
 ! D97   D(20,16,22,26)        162.387          estimate D2E/DX2                !
 ! D98   D(20,16,22,27)         42.3643         estimate D2E/DX2                !
 ! D99   D(20,16,22,28)        -81.4615         estimate D2E/DX2                !
 ! D100  D(1,18,37,38)          16.116          estimate D2E/DX2                !
 ! D101  D(16,18,37,38)         98.4068         estimate D2E/DX2                !
 ! D102  D(36,18,37,38)       -166.4108         estimate D2E/DX2                !
 ! D103  D(12,19,31,42)       -176.3448         estimate D2E/DX2                !
 ! D104  D(12,19,31,43)         65.5939         estimate D2E/DX2                !
 ! D105  D(12,19,31,44)        -57.6035         estimate D2E/DX2                !
 ! D106  D(30,19,31,42)         60.0009         estimate D2E/DX2                !
 ! D107  D(30,19,31,43)        -58.0604         estimate D2E/DX2                !
 ! D108  D(30,19,31,44)        178.7422         estimate D2E/DX2                !
 ! D109  D(32,19,31,42)        -55.4264         estimate D2E/DX2                !
 ! D110  D(32,19,31,43)       -173.4877         estimate D2E/DX2                !
 ! D111  D(32,19,31,44)         63.3149         estimate D2E/DX2                !
 ! D112  D(16,20,23,45)        170.313          estimate D2E/DX2                !
 ! D113  D(16,20,23,46)         48.6437         estimate D2E/DX2                !
 ! D114  D(16,20,23,47)        -71.0376         estimate D2E/DX2                !
 ! D115  D(24,20,23,45)        -70.3852         estimate D2E/DX2                !
 ! D116  D(24,20,23,46)        167.9455         estimate D2E/DX2                !
 ! D117  D(24,20,23,47)         48.2642         estimate D2E/DX2                !
 ! D118  D(25,20,23,45)         48.642          estimate D2E/DX2                !
 ! D119  D(25,20,23,46)        -73.0273         estimate D2E/DX2                !
 ! D120  D(25,20,23,47)        167.2914         estimate D2E/DX2                !
 ! D121  D(16,20,24,48)        170.2603         estimate D2E/DX2                !
 ! D122  D(16,20,24,49)         52.2225         estimate D2E/DX2                !
 ! D123  D(16,20,24,50)        -70.8585         estimate D2E/DX2                !
 ! D124  D(23,20,24,48)         53.1391         estimate D2E/DX2                !
 ! D125  D(23,20,24,49)        -64.8987         estimate D2E/DX2                !
 ! D126  D(23,20,24,50)        172.0203         estimate D2E/DX2                !
 ! D127  D(25,20,24,48)        -64.7527         estimate D2E/DX2                !
 ! D128  D(25,20,24,49)        177.2096         estimate D2E/DX2                !
 ! D129  D(25,20,24,50)         54.1285         estimate D2E/DX2                !
 ! D130  D(16,20,25,51)        178.1576         estimate D2E/DX2                !
 ! D131  D(16,20,25,52)         58.789          estimate D2E/DX2                !
 ! D132  D(16,20,25,53)        -64.2466         estimate D2E/DX2                !
 ! D133  D(23,20,25,51)        -63.4332         estimate D2E/DX2                !
 ! D134  D(23,20,25,52)        177.1982         estimate D2E/DX2                !
 ! D135  D(23,20,25,53)         54.1626         estimate D2E/DX2                !
 ! D136  D(24,20,25,51)         54.215          estimate D2E/DX2                !
 ! D137  D(24,20,25,52)        -65.1535         estimate D2E/DX2                !
 ! D138  D(24,20,25,53)        171.8109         estimate D2E/DX2                !
 ! D139  D(12,21,34,39)         51.293          estimate D2E/DX2                !
 ! D140  D(12,21,34,40)        -70.9559         estimate D2E/DX2                !
 ! D141  D(12,21,34,41)        170.0492         estimate D2E/DX2                !
 ! D142  D(33,21,34,39)        -67.6167         estimate D2E/DX2                !
 ! D143  D(33,21,34,40)        170.1343         estimate D2E/DX2                !
 ! D144  D(33,21,34,41)         51.1395         estimate D2E/DX2                !
 ! D145  D(35,21,34,39)        174.7568         estimate D2E/DX2                !
 ! D146  D(35,21,34,40)         52.5079         estimate D2E/DX2                !
 ! D147  D(35,21,34,41)        -66.487          estimate D2E/DX2                !
 ! D148  D(16,22,26,60)        172.8818         estimate D2E/DX2                !
 ! D149  D(16,22,26,61)         53.8353         estimate D2E/DX2                !
 ! D150  D(16,22,26,62)        -68.5511         estimate D2E/DX2                !
 ! D151  D(27,22,26,60)        -63.2358         estimate D2E/DX2                !
 ! D152  D(27,22,26,61)        177.7177         estimate D2E/DX2                !
 ! D153  D(27,22,26,62)         55.3313         estimate D2E/DX2                !
 ! D154  D(28,22,26,60)         56.1297         estimate D2E/DX2                !
 ! D155  D(28,22,26,61)        -62.9168         estimate D2E/DX2                !
 ! D156  D(28,22,26,62)        174.6968         estimate D2E/DX2                !
 ! D157  D(16,22,27,54)        -66.9455         estimate D2E/DX2                !
 ! D158  D(16,22,27,55)        174.2947         estimate D2E/DX2                !
 ! D159  D(16,22,27,56)         55.888          estimate D2E/DX2                !
 ! D160  D(26,22,27,54)        173.7224         estimate D2E/DX2                !
 ! D161  D(26,22,27,55)         54.9626         estimate D2E/DX2                !
 ! D162  D(26,22,27,56)        -63.4441         estimate D2E/DX2                !
 ! D163  D(28,22,27,54)         55.9873         estimate D2E/DX2                !
 ! D164  D(28,22,27,55)        -62.7724         estimate D2E/DX2                !
 ! D165  D(28,22,27,56)        178.8209         estimate D2E/DX2                !
 ! D166  D(16,22,28,57)         67.8608         estimate D2E/DX2                !
 ! D167  D(16,22,28,58)        -53.6541         estimate D2E/DX2                !
 ! D168  D(16,22,28,59)       -172.7354         estimate D2E/DX2                !
 ! D169  D(26,22,28,57)       -176.4421         estimate D2E/DX2                !
 ! D170  D(26,22,28,58)         62.043          estimate D2E/DX2                !
 ! D171  D(26,22,28,59)        -57.0383         estimate D2E/DX2                !
 ! D172  D(27,22,28,57)        -58.3809         estimate D2E/DX2                !
 ! D173  D(27,22,28,58)       -179.8958         estimate D2E/DX2                !
 ! D174  D(27,22,28,59)         61.0229         estimate D2E/DX2                !
 --------------------------------------------------------------------------------
 Trust Radius=3.00D-01 FncErr=1.00D-07 GrdErr=1.00D-06 EigMax=2.50D+02 EigMin=1.00D-04
 Number of steps in this run=    374 maximum allowed number of steps=    378.
 GradGradGradGradGradGradGradGradGradGradGradGradGradGradGradGradGradGrad

 Stoichiometry    C20H37N2O2PRu
 Framework group  C1[X(C20H37N2O2PRu)]
 Deg. of freedom   183
 Full point group                 C1      NOp   1
 Largest Abelian subgroup         C1      NOp   1
 Largest concise Abelian subgroup C1      NOp   1
                         Standard orientation:                         
 ---------------------------------------------------------------------
 Center     Atomic      Atomic             Coordinates (Angstroms)
 Number     Number       Type             X           Y           Z
 ---------------------------------------------------------------------
      1          7           0       -0.809310    1.437353   -0.143505
      2          6           0       -2.036124    1.844258    0.208977
      3          6           0        0.092529    2.289960   -0.656660
      4          6           0       -2.421862    3.173233    0.072758
      5          6           0       -1.492599    4.083104   -0.428100
      6          6           0       -0.225179    3.642411   -0.794940
      7          6           0       -2.880257    0.762289    0.812036
      8          1           0       -3.426458    3.487503    0.358310
      9          1           0       -1.760414    5.135584   -0.540925
     10          1           0        0.512610    4.334854   -1.202101
     11          6           0        1.394162    1.690437   -1.092145
     12          7           0       -2.710676   -0.532978    0.119183
     13          1           0       -3.939768    1.068715    0.860723
     14          1           0       -2.527258    0.609443    1.845454
     15          1           0        1.231415    1.339314   -2.127451
     16         15           0        1.731965    0.085310   -0.185559
     17          1           0        2.212078    2.425321   -1.077139
     18         44           0       -0.416562   -0.628278   -0.058835
     19          6           0       -3.335617   -0.507999   -1.226962
     20          6           0        3.008830   -0.781560   -1.313640
     21          6           0       -3.291848   -1.575525    0.999604
     22          6           0        2.556293    0.596851    1.462534
     23          6           0        2.230660   -1.449418   -2.454452
     24          6           0        3.752318   -1.879459   -0.546157
     25          6           0        4.012232    0.201293   -1.927750
     26          6           0        1.647894    1.647307    2.113060
     27          6           0        3.954289    1.198501    1.311063
     28          6           0        2.598957   -0.623117    2.389392
     29          1           0       -0.397561   -0.663741   -1.682521
     30          1           0       -2.734317    0.182233   -1.836305
     31          6           0       -4.824442   -0.197401   -1.287153
     32          1           0       -3.140565   -1.492496   -1.671477
     33          1           0       -2.666065   -1.583935    1.903895
     34          6           0       -3.339611   -2.963929    0.396899
     35          1           0       -4.312729   -1.271129    1.305838
     36          6           0        0.005306   -2.399389    0.081855
     37          8           0       -0.317310   -0.595192    2.102159
     38          1           0       -0.715743    0.226674    2.410217
     39          1           0       -2.359495   -3.259054   -0.001790
     40          1           0       -4.086037   -3.052837   -0.406262
     41          1           0       -3.615301   -3.683983    1.181807
     42          1           0       -5.154520   -0.279282   -2.334068
     43          1           0       -5.065599    0.825405   -0.959138
     44          1           0       -5.437544   -0.897142   -0.697264
     45          1           0        2.951945   -1.805265   -3.209788
     46          1           0        1.506408   -0.767453   -2.922524
     47          1           0        1.663221   -2.316936   -2.089255
     48          1           0        4.345931   -2.467658   -1.266384
     49          1           0        3.056031   -2.573711   -0.051891
     50          1           0        4.449777   -1.485028    0.206165
     51          1           0        4.735465   -0.367641   -2.536635
     52          1           0        4.585618    0.766602   -1.181738
     53          1           0        3.520849    0.916643   -2.603326
     54          1           0        4.695628    0.471461    0.952364
     55          1           0        4.298859    1.552989    2.297607
     56          1           0        3.965617    2.066768    0.633776
     57          1           0        3.279741   -1.405844    2.030386
     58          1           0        1.595311   -1.059516    2.499115
     59          1           0        2.951974   -0.306168    3.385539
     60          1           0        2.030862    1.866832    3.123963
     61          1           0        0.617406    1.274754    2.206709
     62          1           0        1.635960    2.596224    1.554799
     63          8           0        0.323589   -3.515512    0.205640
 ---------------------------------------------------------------------
 Rotational constants (GHZ):           0.2527668           0.1634350           0.1297645
 General basis read from cards:  (5D, 7F)
 ======================================================================================================
                                       Pseudopotential Parameters
 ======================================================================================================
  Center     Atomic      Valence      Angular      Power
  Number     Number     Electrons     Momentum     of R      Exponent        Coefficient   SO-Coeffient
 ======================================================================================================
    1          7
                                   No pseudopotential on this center.
    2          6
                                   No pseudopotential on this center.
    3          6
                                   No pseudopotential on this center.
    4          6
                                   No pseudopotential on this center.
    5          6
                                   No pseudopotential on this center.
    6          6
                                   No pseudopotential on this center.
    7          6
                                   No pseudopotential on this center.
    8          1
                                   No pseudopotential on this center.
    9          1
                                   No pseudopotential on this center.
   10          1
                                   No pseudopotential on this center.
   11          6
                                   No pseudopotential on this center.
   12          7
                                   No pseudopotential on this center.
   13          1
                                   No pseudopotential on this center.
   14          1
                                   No pseudopotential on this center.
   15          1
                                   No pseudopotential on this center.
   16         15
                                   No pseudopotential on this center.
   17          1
                                   No pseudopotential on this center.
   18         44           16
                                      G and up 
                                                     2        1.0000000        0.00000000    0.00000000
                                      S - G
                                                     2       11.1052690      209.82297100    0.00000000
                                                     2        5.4147450       30.65472600    0.00000000
                                      P - G
                                                     2        9.7712710      146.33618200    0.00000000
                                                     2        5.0739910       24.12787700    0.00000000
                                      D - G
                                                     2        7.6714230       67.51589700    0.00000000
                                                     2        4.1365650        9.87010400    0.00000000
                                      F - G
                                                     2       11.3600000      -28.34061600    0.00000000
                                                     2        5.6800000       -4.94462900    0.00000000
   19          6
                                   No pseudopotential on this center.
   20          6
                                   No pseudopotential on this center.
   21          6
                                   No pseudopotential on this center.
   22          6
                                   No pseudopotential on this center.
   23          6
                                   No pseudopotential on this center.
   24          6
                                   No pseudopotential on this center.
   25          6
                                   No pseudopotential on this center.
   26          6
                                   No pseudopotential on this center.
   27          6
                                   No pseudopotential on this center.
   28          6
                                   No pseudopotential on this center.
   29          1
                                   No pseudopotential on this center.
   30          1
                                   No pseudopotential on this center.
   31          6
                                   No pseudopotential on this center.
   32          1
                                   No pseudopotential on this center.
   33          1
                                   No pseudopotential on this center.
   34          6
                                   No pseudopotential on this center.
   35          1
                                   No pseudopotential on this center.
   36          6
                                   No pseudopotential on this center.
   37          8
                                   No pseudopotential on this center.
   38          1
                                   No pseudopotential on this center.
   39          1
                                   No pseudopotential on this center.
   40          1
                                   No pseudopotential on this center.
   41          1
                                   No pseudopotential on this center.
   42          1
                                   No pseudopotential on this center.
   43          1
                                   No pseudopotential on this center.
   44          1
                                   No pseudopotential on this center.
   45          1
                                   No pseudopotential on this center.
   46          1
                                   No pseudopotential on this center.
   47          1
                                   No pseudopotential on this center.
   48          1
                                   No pseudopotential on this center.
   49          1
                                   No pseudopotential on this center.
   50          1
                                   No pseudopotential on this center.
   51          1
                                   No pseudopotential on this center.
   52          1
                                   No pseudopotential on this center.
   53          1
                                   No pseudopotential on this center.
   54          1
                                   No pseudopotential on this center.
   55          1
                                   No pseudopotential on this center.
   56          1
                                   No pseudopotential on this center.
   57          1
                                   No pseudopotential on this center.
   58          1
                                   No pseudopotential on this center.
   59          1
                                   No pseudopotential on this center.
   60          1
                                   No pseudopotential on this center.
   61          1
                                   No pseudopotential on this center.
   62          1
                                   No pseudopotential on this center.
   63          8
                                   No pseudopotential on this center.
 ======================================================================================================
 There are   603 symmetry adapted cartesian basis functions of A   symmetry.
 There are   575 symmetry adapted basis functions of A   symmetry.
   575 basis functions,  1187 primitive gaussians,   603 cartesian basis functions
   109 alpha electrons      109 beta electrons
       nuclear repulsion energy      3241.6602388344 Hartrees.
 NAtoms=   63 NActive=   63 NUniq=   63 SFac= 1.00D+00 NAtFMM=   60 NAOKFM=T Big=T
 Integral buffers will be    131072 words long.
 Raffenetti 2 integral format.
 Two-electron integral symmetry is turned on.
 Nuclear repulsion after empirical dispersion term =     3241.5666003838 Hartrees.
 One-electron integrals computed using PRISM.
   1 Symmetry operations used in ECPInt.
 ECPInt:  NShTT=   38503 NPrTT=  265225 LenC2=   35732 LenP2D=  135809.
 LDataN:  DoStor=T MaxTD1= 6 Len=  172
 NBasis=   575 RedAO= T EigKep=  4.44D-04  NBF=   575
 NBsUse=   575 1.00D-06 EigRej= -1.00D+00 NBFU=   575
 Defaulting to unpruned grid for atomic number  44.
 ExpMin= 1.60D-02 ExpMax= 9.48D+04 ExpMxC= 3.24D+03 IAcc=3 IRadAn=         5 AccDes= 0.00D+00
 Harris functional with IExCor= 1009 and IRadAn=       5 diagonalized for initial guess.
 HarFok:  IExCor= 1009 AccDes= 0.00D+00 IRadAn=         5 IDoV= 1 UseB2=F ITyADJ=14
 ICtDFT=  3500011 ScaDFX=  1.000000  1.000000  1.000000  1.000000
 Defaulting to unpruned grid for atomic number  44.
 FoFCou: FMM=F IPFlag=           0 FMFlag=      100000 FMFlg1=        2001
         NFxFlg=           0 DoJE=T BraDBF=F KetDBF=T FulRan=T
         wScrn=  0.000000 ICntrl=       500 IOpCl=  0 I1Cent=   200000004 NGrid=           0
         NMat0=    1 NMatS0=      1 NMatT0=    0 NMatD0=    1 NMtDS0=    0 NMtDT0=    0
 Petite list used in FoFCou.
 Requested convergence on RMS density matrix=1.00D-08 within 128 cycles.
 Requested convergence on MAX density matrix=1.00D-06.
 Requested convergence on             energy=1.00D-06.
 No special actions if energy rises.
 Defaulting to unpruned grid for atomic number  44.
 Defaulting to unpruned grid for atomic number  44.
 Defaulting to unpruned grid for atomic number  44.
 Defaulting to unpruned grid for atomic number  44.
 Defaulting to unpruned grid for atomic number  44.
 Defaulting to unpruned grid for atomic number  44.
 Defaulting to unpruned grid for atomic number  44.
 Defaulting to unpruned grid for atomic number  44.
 Defaulting to unpruned grid for atomic number  44.
 Defaulting to unpruned grid for atomic number  44.
 Defaulting to unpruned grid for atomic number  44.
 Defaulting to unpruned grid for atomic number  44.
 Defaulting to unpruned grid for atomic number  44.
 Defaulting to unpruned grid for atomic number  44.
 Defaulting to unpruned grid for atomic number  44.
 Defaulting to unpruned grid for atomic number  44.
 EnCoef did     2 forward-backward iterations
 SCF Done:  E(RPBE1PBE) =  -1479.48047195     A.U. after   17 cycles
            NFock= 17  Conv=0.52D-08     -V/T= 2.0489

 **********************************************************************

            Population analysis using the SCF density.

 **********************************************************************

 Orbital symmetries:
       Occupied  (A) (A) (A) (A) (A) (A) (A) (A) (A) (A) (A) (A)
                 (A) (A) (A) (A) (A) (A) (A) (A) (A) (A) (A) (A)
                 (A) (A) (A) (A) (A) (A) (A) (A) (A) (A) (A) (A)
                 (A) (A) (A) (A) (A) (A) (A) (A) (A) (A) (A) (A)
                 (A) (A) (A) (A) (A) (A) (A) (A) (A) (A) (A) (A)
                 (A) (A) (A) (A) (A) (A) (A) (A) (A) (A) (A) (A)
                 (A) (A) (A) (A) (A) (A) (A) (A) (A) (A) (A) (A)
                 (A) (A) (A) (A) (A) (A) (A) (A) (A) (A) (A) (A)
                 (A) (A) (A) (A) (A) (A) (A) (A) (A) (A) (A) (A)
                 (A)
       Virtual   (A) (A) (A) (A) (A) (A) (A) (A) (A) (A) (A) (A)
                 (A) (A) (A) (A) (A) (A) (A) (A) (A) (A) (A) (A)
                 (A) (A) (A) (A) (A) (A) (A) (A) (A) (A) (A) (A)
                 (A) (A) (A) (A) (A) (A) (A) (A) (A) (A) (A) (A)
                 (A) (A) (A) (A) (A) (A) (A) (A) (A) (A) (A) (A)
                 (A) (A) (A) (A) (A) (A) (A) (A) (A) (A) (A) (A)
                 (A) (A) (A) (A) (A) (A) (A) (A) (A) (A) (A) (A)
                 (A) (A) (A) (A) (A) (A) (A) (A) (A) (A) (A) (A)
                 (A) (A) (A) (A) (A) (A) (A) (A) (A) (A) (A) (A)
                 (A) (A) (A) (A) (A) (A) (A) (A) (A) (A) (A) (A)
                 (A) (A) (A) (A) (A) (A) (A) (A) (A) (A) (A) (A)
                 (A) (A) (A) (A) (A) (A) (A) (A) (A) (A) (A) (A)
                 (A) (A) (A) (A) (A) (A) (A) (A) (A) (A) (A) (A)
                 (A) (A) (A) (A) (A) (A) (A) (A) (A) (A) (A) (A)
                 (A) (A) (A) (A) (A) (A) (A) (A) (A) (A) (A) (A)
                 (A) (A) (A) (A) (A) (A) (A) (A) (A) (A) (A) (A)
                 (A) (A) (A) (A) (A) (A) (A) (A) (A) (A) (A) (A)
                 (A) (A) (A) (A) (A) (A) (A) (A) (A) (A) (A) (A)
                 (A) (A) (A) (A) (A) (A) (A) (A) (A) (A) (A) (A)
                 (A) (A) (A) (A) (A) (A) (A) (A) (A) (A) (A) (A)
                 (A) (A) (A) (A) (A) (A) (A) (A) (A) (A) (A) (A)
                 (A) (A) (A) (A) (A) (A) (A) (A) (A) (A) (A) (A)
                 (A) (A) (A) (A) (A) (A) (A) (A) (A) (A) (A) (A)
                 (A) (A) (A) (A) (A) (A) (A) (A) (A) (A) (A) (A)
                 (A) (A) (A) (A) (A) (A) (A) (A) (A) (A) (A) (A)
                 (A) (A) (A) (A) (A) (A) (A) (A) (A) (A) (A) (A)
                 (A) (A) (A) (A) (A) (A) (A) (A) (A) (A) (A) (A)
                 (A) (A) (A) (A) (A) (A) (A) (A) (A) (A) (A) (A)
                 (A) (A) (A) (A) (A) (A) (A) (A) (A) (A) (A) (A)
                 (A) (A) (A) (A) (A) (A) (A) (A) (A) (A) (A) (A)
                 (A) (A) (A) (A) (A) (A) (A) (A) (A) (A) (A) (A)
                 (A) (A) (A) (A) (A) (A) (A) (A) (A) (A) (A) (A)
                 (A) (A) (A) (A) (A) (A) (A) (A) (A) (A) (A) (A)
                 (A) (A) (A) (A) (A) (A) (A) (A) (A) (A) (A) (A)
                 (A) (A) (A) (A) (A) (A) (A) (A) (A) (A) (A) (A)
                 (A) (A) (A) (A) (A) (A) (A) (A) (A) (A) (A) (A)
                 (A) (A) (A) (A) (A) (A) (A) (A) (A) (A) (A) (A)
                 (A) (A) (A) (A) (A) (A) (A) (A) (A) (A) (A) (A)
                 (A) (A) (A) (A) (A) (A) (A) (A) (A) (A)
 The electronic state is 1-A.
 Alpha  occ. eigenvalues --  -77.25236 -19.23416 -19.11077 -14.44315 -14.43838
 Alpha  occ. eigenvalues --  -10.30684 -10.30262 -10.29301 -10.28048 -10.27681
 Alpha  occ. eigenvalues --  -10.26721 -10.26575 -10.26023 -10.25733 -10.25662
 Alpha  occ. eigenvalues --  -10.25546 -10.24805 -10.23549 -10.22879 -10.22448
 Alpha  occ. eigenvalues --  -10.22264 -10.21964 -10.21466 -10.20917 -10.19171
 Alpha  occ. eigenvalues --   -6.63100  -4.76779  -4.76654  -4.76396  -3.00653
 Alpha  occ. eigenvalues --   -1.85155  -1.83716  -1.82362  -1.09668  -1.01814
 Alpha  occ. eigenvalues --   -0.97248  -0.88602  -0.85667  -0.85329  -0.84067
 Alpha  occ. eigenvalues --   -0.82249  -0.78603  -0.77961  -0.75299  -0.71770
 Alpha  occ. eigenvalues --   -0.70898  -0.70077  -0.69477  -0.68303  -0.67087
 Alpha  occ. eigenvalues --   -0.66856  -0.64204  -0.62558  -0.58512  -0.55808
 Alpha  occ. eigenvalues --   -0.55130  -0.54035  -0.53480  -0.52192  -0.51614
 Alpha  occ. eigenvalues --   -0.50732  -0.49297  -0.48395  -0.47038  -0.46368
 Alpha  occ. eigenvalues --   -0.45842  -0.45620  -0.45337  -0.45038  -0.44306
 Alpha  occ. eigenvalues --   -0.43645  -0.43160  -0.42961  -0.42545  -0.42404
 Alpha  occ. eigenvalues --   -0.41835  -0.41262  -0.40997  -0.40567  -0.40344
 Alpha  occ. eigenvalues --   -0.39774  -0.39283  -0.38945  -0.38515  -0.38307
 Alpha  occ. eigenvalues --   -0.37451  -0.37178  -0.36752  -0.36344  -0.35315
 Alpha  occ. eigenvalues --   -0.35145  -0.34882  -0.34659  -0.34221  -0.33331
 Alpha  occ. eigenvalues --   -0.33018  -0.32988  -0.32859  -0.32283  -0.31277
 Alpha  occ. eigenvalues --   -0.29586  -0.28684  -0.28126  -0.26911  -0.23653
 Alpha  occ. eigenvalues --   -0.22135  -0.21397  -0.20279  -0.16826
 Alpha virt. eigenvalues --   -0.05088  -0.03203   0.00492   0.01662   0.02466
 Alpha virt. eigenvalues --    0.03520   0.04206   0.05646   0.06273   0.06738
 Alpha virt. eigenvalues --    0.07153   0.07886   0.08085   0.08954   0.09156
 Alpha virt. eigenvalues --    0.09670   0.10033   0.10269   0.10677   0.10868
 Alpha virt. eigenvalues --    0.11833   0.11977   0.12275   0.12497   0.12809
 Alpha virt. eigenvalues --    0.13144   0.13352   0.13847   0.13973   0.15102
 Alpha virt. eigenvalues --    0.15230   0.15699   0.15783   0.16071   0.16998
 Alpha virt. eigenvalues --    0.17498   0.17674   0.17936   0.18277   0.18509
 Alpha virt. eigenvalues --    0.18605   0.19218   0.19441   0.19532   0.20043
 Alpha virt. eigenvalues --    0.20683   0.20725   0.21299   0.21738   0.22170
 Alpha virt. eigenvalues --    0.22258   0.22660   0.22847   0.23208   0.23903
 Alpha virt. eigenvalues --    0.24188   0.24542   0.25186   0.25686   0.26265
 Alpha virt. eigenvalues --    0.26887   0.27355   0.27713   0.28855   0.29039
 Alpha virt. eigenvalues --    0.30036   0.30309   0.30612   0.30829   0.31729
 Alpha virt. eigenvalues --    0.33084   0.33645   0.34447   0.35779   0.36315
 Alpha virt. eigenvalues --    0.37680   0.38421   0.39721   0.41489   0.41552
 Alpha virt. eigenvalues --    0.42415   0.43075   0.44016   0.44565   0.45006
 Alpha virt. eigenvalues --    0.45825   0.46056   0.46730   0.47153   0.47548
 Alpha virt. eigenvalues --    0.48374   0.48940   0.49566   0.50195   0.50697
 Alpha virt. eigenvalues --    0.50849   0.51677   0.52724   0.52975   0.53294
 Alpha virt. eigenvalues --    0.54201   0.55344   0.55532   0.56087   0.56649
 Alpha virt. eigenvalues --    0.56868   0.57419   0.58264   0.58720   0.59140
 Alpha virt. eigenvalues --    0.59944   0.60162   0.60497   0.61306   0.61636
 Alpha virt. eigenvalues --    0.61870   0.62266   0.62642   0.63414   0.64034
 Alpha virt. eigenvalues --    0.64257   0.64529   0.64645   0.64945   0.65028
 Alpha virt. eigenvalues --    0.65625   0.65758   0.66172   0.66808   0.67007
 Alpha virt. eigenvalues --    0.67246   0.67433   0.67487   0.67772   0.67965
 Alpha virt. eigenvalues --    0.68488   0.69054   0.69256   0.69969   0.70285
 Alpha virt. eigenvalues --    0.70568   0.70812   0.71034   0.71923   0.72342
 Alpha virt. eigenvalues --    0.72737   0.72915   0.73398   0.73921   0.74026
 Alpha virt. eigenvalues --    0.74532   0.74723   0.75205   0.75751   0.76145
 Alpha virt. eigenvalues --    0.76895   0.77329   0.78032   0.78444   0.78646
 Alpha virt. eigenvalues --    0.79227   0.79836   0.79971   0.80381   0.80793
 Alpha virt. eigenvalues --    0.81880   0.82365   0.82968   0.83256   0.84218
 Alpha virt. eigenvalues --    0.84901   0.85744   0.86018   0.86558   0.86982
 Alpha virt. eigenvalues --    0.87790   0.88407   0.89018   0.89315   0.89799
 Alpha virt. eigenvalues --    0.90997   0.91447   0.92316   0.92874   0.93474
 Alpha virt. eigenvalues --    0.94226   0.94568   0.95572   0.96011   0.96726
 Alpha virt. eigenvalues --    0.97438   0.98020   0.98773   0.99759   1.00187
 Alpha virt. eigenvalues --    1.00644   1.01216   1.01741   1.03382   1.03886
 Alpha virt. eigenvalues --    1.04182   1.05013   1.06541   1.07062   1.07476
 Alpha virt. eigenvalues --    1.09252   1.10031   1.11482   1.12569   1.12888
 Alpha virt. eigenvalues --    1.13570   1.13920   1.15478   1.16527   1.18114
 Alpha virt. eigenvalues --    1.20009   1.20406   1.20604   1.21238   1.23484
 Alpha virt. eigenvalues --    1.24241   1.25043   1.25659   1.27362   1.27667
 Alpha virt. eigenvalues --    1.28701   1.29192   1.30190   1.31013   1.31509
 Alpha virt. eigenvalues --    1.32071   1.32788   1.33263   1.34152   1.34897
 Alpha virt. eigenvalues --    1.35471   1.36707   1.37592   1.38341   1.38782
 Alpha virt. eigenvalues --    1.39759   1.40575   1.40776   1.41468   1.41775
 Alpha virt. eigenvalues --    1.42338   1.42999   1.43328   1.43513   1.44628
 Alpha virt. eigenvalues --    1.44881   1.45325   1.45442   1.46552   1.47079
 Alpha virt. eigenvalues --    1.47700   1.47874   1.48466   1.49745   1.50236
 Alpha virt. eigenvalues --    1.50451   1.51130   1.52177   1.52693   1.53354
 Alpha virt. eigenvalues --    1.53680   1.54060   1.55251   1.55781   1.56174
 Alpha virt. eigenvalues --    1.56837   1.57097   1.57844   1.58960   1.59364
 Alpha virt. eigenvalues --    1.59700   1.61241   1.61406   1.61798   1.62723
 Alpha virt. eigenvalues --    1.62808   1.63333   1.63799   1.65093   1.65617
 Alpha virt. eigenvalues --    1.65699   1.66033   1.66582   1.67013   1.67154
 Alpha virt. eigenvalues --    1.68158   1.68535   1.68848   1.69533   1.69770
 Alpha virt. eigenvalues --    1.70755   1.70896   1.71141   1.71626   1.72057
 Alpha virt. eigenvalues --    1.72383   1.72688   1.73319   1.73508   1.74166
 Alpha virt. eigenvalues --    1.74416   1.74970   1.75758   1.76223   1.76401
 Alpha virt. eigenvalues --    1.76564   1.77275   1.77538   1.78024   1.78302
 Alpha virt. eigenvalues --    1.79534   1.79999   1.80376   1.80687   1.80858
 Alpha virt. eigenvalues --    1.81594   1.82070   1.83151   1.83645   1.84610
 Alpha virt. eigenvalues --    1.85120   1.85622   1.85871   1.86333   1.87104
 Alpha virt. eigenvalues --    1.87447   1.88103   1.88302   1.88898   1.89605
 Alpha virt. eigenvalues --    1.90471   1.90988   1.91719   1.92444   1.92849
 Alpha virt. eigenvalues --    1.93462   1.93791   1.95229   1.96062   1.96928
 Alpha virt. eigenvalues --    1.97564   1.98255   1.98633   1.99152   1.99725
 Alpha virt. eigenvalues --    2.00485   2.00998   2.02237   2.02589   2.03459
 Alpha virt. eigenvalues --    2.03874   2.04069   2.04650   2.05077   2.06323
 Alpha virt. eigenvalues --    2.06738   2.07485   2.07840   2.08368   2.08891
 Alpha virt. eigenvalues --    2.09503   2.10424   2.10939   2.11891   2.12680
 Alpha virt. eigenvalues --    2.14108   2.14504   2.15954   2.16318   2.16870
 Alpha virt. eigenvalues --    2.17268   2.18184   2.19143   2.20774   2.21998
 Alpha virt. eigenvalues --    2.23413   2.24082   2.24792   2.25181   2.25815
 Alpha virt. eigenvalues --    2.26291   2.26688   2.27133   2.28058   2.28757
 Alpha virt. eigenvalues --    2.30865   2.31518   2.32143   2.34084   2.36366
 Alpha virt. eigenvalues --    2.37916   2.40022   2.40291   2.40804   2.41064
 Alpha virt. eigenvalues --    2.41956   2.42729   2.43226   2.43473   2.44097
 Alpha virt. eigenvalues --    2.44341   2.45414   2.45697   2.46356   2.47101
 Alpha virt. eigenvalues --    2.47547   2.49073   2.49513   2.49631   2.50042
 Alpha virt. eigenvalues --    2.51017   2.51347   2.52071   2.52817   2.53162
 Alpha virt. eigenvalues --    2.53615   2.55654   2.55731   2.56245   2.56803
 Alpha virt. eigenvalues --    2.57041   2.57666   2.58022   2.58361   2.58949
 Alpha virt. eigenvalues --    2.59853   2.61169   2.61576   2.62403   2.65320
 Alpha virt. eigenvalues --    2.66112   2.67325   2.67532   2.68936   2.69414
 Alpha virt. eigenvalues --    2.70261   2.72452   2.72606   2.74635   2.77381
 Alpha virt. eigenvalues --    2.78056   2.78733   2.81394   2.82084   2.82959
 Alpha virt. eigenvalues --    2.86399   2.89226   2.95016   3.00166   3.04006
 Alpha virt. eigenvalues --    3.08036   3.09928   3.15000   3.16328   3.50038
 Alpha virt. eigenvalues --    3.61247   3.89017  34.72299  35.05462  35.12171
 Alpha virt. eigenvalues --   46.06021
          Condensed to atoms (all electrons):
 Mulliken charges:
               1
     1  N   -0.314990
     2  C    0.047862
     3  C    0.089367
     4  C   -0.045793
     5  C    0.080829
     6  C   -0.046298
     7  C    0.114363
     8  H    0.006403
     9  H    0.021163
    10  H    0.007277
    11  C   -0.096537
    12  N   -0.380580
    13  H    0.035517
    14  H    0.096592
    15  H    0.118675
    16  P    0.223966
    17  H    0.059107
    18  Ru  -0.185158
    19  C   -0.019171
    20  C   -0.480305
    21  C   -0.004381
    22  C   -0.445541
    23  C    0.025462
    24  C   -0.006799
    25  C    0.008864
    26  C    0.003929
    27  C    0.015920
    28  C   -0.019270
    29  H    0.020154
    30  H    0.117743
    31  C   -0.072955
    32  H    0.093461
    33  H    0.104470
    34  C   -0.097518
    35  H    0.024854
    36  C    0.050388
    37  O   -0.422004
    38  H    0.130725
    39  H    0.105828
    40  H    0.044003
    41  H    0.056518
    42  H    0.056988
    43  H    0.046640
    44  H    0.053374
    45  H    0.027267
    46  H    0.074212
    47  H    0.097639
    48  H    0.039823
    49  H    0.084713
    50  H    0.048382
    51  H    0.039850
    52  H    0.034189
    53  H    0.041010
    54  H    0.046351
    55  H    0.039273
    56  H    0.033635
    57  H    0.020993
    58  H    0.148570
    59  H    0.023357
    60  H    0.034934
    61  H    0.059769
    62  H    0.028722
    63  O   -0.145831
 Sum of Mulliken charges =  -0.00000
 Mulliken charges with hydrogens summed into heavy atoms:
               1
     1  N   -0.314990
     2  C    0.047862
     3  C    0.089367
     4  C   -0.039390
     5  C    0.101992
     6  C   -0.039021
     7  C    0.246471
    11  C    0.081245
    12  N   -0.380580
    16  P    0.223966
    18  Ru  -0.165004
    19  C    0.192033
    20  C   -0.480305
    21  C    0.124944
    22  C   -0.445541
    23  C    0.224579
    24  C    0.166119
    25  C    0.123913
    26  C    0.127354
    27  C    0.135179
    28  C    0.173649
    31  C    0.084047
    34  C    0.108832
    36  C    0.050388
    37  O   -0.291278
    63  O   -0.145831
 Electronic spatial extent (au):  <R**2>=           9560.5532
 Charge=             -0.0000 electrons
 Dipole moment (field-independent basis, Debye):
    X=             -2.0615    Y=              6.5654    Z=             -2.4395  Tot=              7.3010
 Quadrupole moment (field-independent basis, Debye-Ang):
   XX=           -159.9181   YY=           -178.4616   ZZ=           -191.0672
   XY=             -1.7152   XZ=             -4.2716   YZ=              1.4405
 Traceless Quadrupole moment (field-independent basis, Debye-Ang):
   XX=             16.5642   YY=             -1.9793   ZZ=            -14.5849
   XY=             -1.7152   XZ=             -4.2716   YZ=              1.4405
 Octapole moment (field-independent basis, Debye-Ang**2):
  XXX=            -70.8302  YYY=             48.9547  ZZZ=             -5.4358  XYY=            -35.9982
  XXY=            -15.5810  XXZ=              1.3685  XZZ=             -7.6715  YZZ=             -5.5832
  YYZ=            -14.1631  XYZ=             -1.3536
 Hexadecapole moment (field-independent basis, Debye-Ang**3):
 XXXX=          -7069.1610 YYYY=          -3722.0825 ZZZZ=          -1998.9799 XXXY=            -27.2018
 XXXZ=            -26.4116 YYYX=            -39.2071 YYYZ=            -70.3080 ZZZX=              1.4193
 ZZZY=             25.8771 XXYY=          -1758.7638 XXZZ=          -1499.1515 YYZZ=           -994.2773
 XXYZ=             22.8133 YYXZ=            -32.5384 ZZXY=             18.1823
 N-N= 3.241566600384D+03 E-N=-9.918756958869D+03  KE= 1.410462171728D+03
   1 Symmetry operations used in ECPInt.
 ECPInt:  NShTT=   38503 NPrTT=  265225 LenC2=   35732 LenP2D=  135809.
 LDataN:  DoStor=T MaxTD1= 7 Len=  274
 Calling FoFJK, ICntrl=      2127 FMM=T ISym2X=0 I1Cent= 0 IOpClX= 0 NMat=1 NMatS=1 NMatT=0.
 Defaulting to unpruned grid for atomic number  44.
 Defaulting to unpruned grid for atomic number  44.
 Defaulting to unpruned grid for atomic number  44.
 Defaulting to unpruned grid for atomic number  44.
 Defaulting to unpruned grid for atomic number  44.
 Defaulting to unpruned grid for atomic number  44.
 Defaulting to unpruned grid for atomic number  44.
 Defaulting to unpruned grid for atomic number  44.
 Defaulting to unpruned grid for atomic number  44.
 Defaulting to unpruned grid for atomic number  44.
 Defaulting to unpruned grid for atomic number  44.
 Defaulting to unpruned grid for atomic number  44.
 Defaulting to unpruned grid for atomic number  44.
 Defaulting to unpruned grid for atomic number  44.
 Defaulting to unpruned grid for atomic number  44.
 Defaulting to unpruned grid for atomic number  44.
 ***** Axes restored to original set *****
 -------------------------------------------------------------------
 Center     Atomic                   Forces (Hartrees/Bohr)
 Number     Number              X              Y              Z
 -------------------------------------------------------------------
      1        7           0.000420036   -0.005850671   -0.008811724
      2        6          -0.002624170    0.001072127    0.001397373
      3        6           0.002233041    0.004354406    0.002151104
      4        6           0.000551959   -0.000690458    0.000319460
      5        6          -0.000605955    0.000768025   -0.000079588
      6        6           0.001008849   -0.001001647    0.000253663
      7        6          -0.000942336   -0.000264236   -0.001328878
      8        1           0.000113056   -0.000191789    0.000039796
      9        1           0.000064905   -0.000189628    0.000018721
     10        1           0.000000583   -0.000187596    0.000152662
     11        6          -0.001651330   -0.000218250   -0.000247666
     12        7           0.001474875    0.000931011   -0.000601223
     13        1           0.000617464   -0.000098426    0.000373465
     14        1          -0.001449649   -0.001310389   -0.000627828
     15        1           0.003209547    0.001721170   -0.000650634
     16       15           0.000028029   -0.003258247    0.000634551
     17        1          -0.000194743   -0.000090474   -0.000703608
     18       44           0.012868667    0.000377617    0.018035217
     19        6           0.003435427   -0.002990172    0.000425298
     20        6          -0.000878130    0.001392568   -0.000602529
     21        6          -0.000135457   -0.001067834    0.001448700
     22        6          -0.001099328   -0.000805185    0.001375341
     23        6           0.000073250   -0.001231595    0.002662263
     24        6          -0.000924310    0.000114094   -0.000029937
     25        6           0.000077693   -0.000298319    0.000303695
     26        6          -0.001107701    0.004445261   -0.002743782
     27        6          -0.000864159    0.000122267   -0.001533117
     28        6           0.002005281   -0.005847521   -0.001633409
     29        1          -0.006104406   -0.000896356    0.000034922
     30        1          -0.002966475    0.002829060    0.000928006
     31        6           0.000113674    0.001540123   -0.001699270
     32        1           0.000597299   -0.000158043    0.000541729
     33        1           0.002606976    0.001078056   -0.000491516
     34        6           0.000129135    0.000872146   -0.000650306
     35        1           0.000221937    0.000365622   -0.000339126
     36        6           0.002267938   -0.011417276   -0.007830122
     37        8          -0.017524068   -0.000409918    0.001072429
     38        1          -0.001444206   -0.001690745    0.003498227
     39        1          -0.000109769   -0.000085792    0.000082665
     40        1          -0.000075459   -0.000234261   -0.000324816
     41        1           0.000232692    0.000438450   -0.000078712
     42        1          -0.000182927   -0.000067135    0.000184047
     43        1           0.000208620   -0.000107402    0.000155367
     44        1           0.001463382   -0.000050576   -0.000077204
     45        1          -0.000656293    0.001087516   -0.000514866
     46        1           0.001323879   -0.000828115   -0.001784671
     47        1          -0.000688603    0.001434697   -0.000541696
     48        1          -0.000115802    0.000187565   -0.000101315
     49        1           0.000065883    0.000610853    0.000200007
     50        1          -0.000827166    0.000288604   -0.000358675
     51        1          -0.000167372    0.000112319    0.000202170
     52        1          -0.000591496   -0.000154436    0.000104491
     53        1          -0.000069861    0.000413135   -0.000028381
     54        1          -0.000147918   -0.000255319    0.000052419
     55        1          -0.000639549   -0.000348946   -0.000060172
     56        1           0.000133979    0.000532063   -0.000246322
     57        1           0.002442511    0.001011598   -0.000404362
     58        1          -0.001822696    0.003823982    0.000270974
     59        1           0.000616332    0.000777172   -0.000431652
     60        1           0.000244470   -0.000326994   -0.000403317
     61        1           0.006576794    0.000248542   -0.000221330
     62        1           0.001278963    0.001063505   -0.000669002
     63        8          -0.002095790    0.008610195   -0.000068006
 -------------------------------------------------------------------
 Cartesian Forces:  Max     0.018035217 RMS     0.002872497

 GradGradGradGradGradGradGradGradGradGradGradGradGradGradGradGradGradGrad
 Berny optimization.
 FormGI is forming the generalized inverse of G from B-inverse, IUseBI=4.
 Internal  Forces:  Max     0.023290813 RMS     0.003604798
 Search for a local minimum.
 Step number   1 out of a maximum of  374
 All quantities printed in internal units (Hartrees-Bohrs-Radians)
 Mixed Optimization -- RFO/linear search
 Second derivative matrix not updated -- first step.
 ITU=  0
     Eigenvalues ---    0.00230   0.00230   0.00230   0.00317   0.00322
     Eigenvalues ---    0.00330   0.00333   0.00342   0.00376   0.00457
     Eigenvalues ---    0.00474   0.00576   0.00576   0.00592   0.00651
     Eigenvalues ---    0.00780   0.01118   0.01354   0.01690   0.01814
     Eigenvalues ---    0.02169   0.02186   0.02188   0.02198   0.02323
     Eigenvalues ---    0.02526   0.02718   0.02798   0.03607   0.03692
     Eigenvalues ---    0.03981   0.04119   0.04203   0.04238   0.04771
     Eigenvalues ---    0.04771   0.04900   0.04910   0.05005   0.05142
     Eigenvalues ---    0.05161   0.05180   0.05196   0.05202   0.05228
     Eigenvalues ---    0.05327   0.05352   0.05373   0.05387   0.05439
     Eigenvalues ---    0.05456   0.05456   0.05705   0.05715   0.05715
     Eigenvalues ---    0.05721   0.05736   0.05753   0.05754   0.05782
     Eigenvalues ---    0.05873   0.06004   0.06637   0.07584   0.08162
     Eigenvalues ---    0.08962   0.09365   0.09518   0.09766   0.09935
     Eigenvalues ---    0.10249   0.11859   0.12031   0.13073   0.13120
     Eigenvalues ---    0.13293   0.13332   0.14115   0.14244   0.14274
     Eigenvalues ---    0.14550   0.14666   0.15516   0.15997   0.15999
     Eigenvalues ---    0.16000   0.16000   0.16000   0.16000   0.16000
     Eigenvalues ---    0.16000   0.16000   0.16000   0.16000   0.16000
     Eigenvalues ---    0.16000   0.16000   0.16000   0.16000   0.16000
     Eigenvalues ---    0.16000   0.16000   0.16000   0.16000   0.16000
     Eigenvalues ---    0.16000   0.16000   0.16000   0.16000   0.16000
     Eigenvalues ---    0.16000   0.16058   0.16299   0.17187   0.18084
     Eigenvalues ---    0.18940   0.18980   0.21011   0.21904   0.22015
     Eigenvalues ---    0.22020   0.22104   0.23151   0.23724   0.24768
     Eigenvalues ---    0.24961   0.29061   0.29096   0.29152   0.29174
     Eigenvalues ---    0.29235   0.29471   0.29936   0.30168   0.30919
     Eigenvalues ---    0.31431   0.32486   0.32766   0.33106   0.33243
     Eigenvalues ---    0.33301   0.33309   0.33313   0.33314   0.33329
     Eigenvalues ---    0.33344   0.33387   0.33507   0.33545   0.33570
     Eigenvalues ---    0.33588   0.33597   0.33627   0.33654   0.33676
     Eigenvalues ---    0.33693   0.33703   0.33709   0.33711   0.33718
     Eigenvalues ---    0.33719   0.33747   0.33782   0.33786   0.33842
     Eigenvalues ---    0.33850   0.33934   0.33941   0.33941   0.34077
     Eigenvalues ---    0.34209   0.34598   0.34720   0.34734   0.34737
     Eigenvalues ---    0.42555   0.43662   0.46619   0.47053   0.51044
     Eigenvalues ---    0.54642   0.55854   1.23195
 RFO step:  Lambda=-3.52933676D-02 EMin= 2.30000000D-03
 Linear search not attempted -- first point.
 Maximum step size (   0.300) exceeded in Quadratic search.
    -- Step size scaled by   0.771
 Iteration  1 RMS(Cart)=  0.19442297 RMS(Int)=  0.00526629
 Iteration  2 RMS(Cart)=  0.01511973 RMS(Int)=  0.00033610
 Iteration  3 RMS(Cart)=  0.00007778 RMS(Int)=  0.00033518
 Iteration  4 RMS(Cart)=  0.00000003 RMS(Int)=  0.00033518
 Variable       Old X    -DE/DX   Delta X   Delta X   Delta X     New X
                                 (Linear)    (Quad)   (Total)
    R1        2.53173  -0.00543   0.00000  -0.00727  -0.00727   2.52446
    R2        2.53785   0.00021   0.00000   0.00020   0.00031   2.53816
[...]
 .00006399,0.00012569,0.00006490,0.00018756,0.00002094,0.00000508,0.000
 01454,-0.00000665,-0.00001092,0.00001369,-0.00001464,-0.00000576,-0.00
 000393,-0.00049130,-0.00019158,0.00003375,0.00009083,-0.00008389,-0.00
 004327,0.00004492,-0.00005113,0.00007256,-0.00056566,0.00041876,-0.000
 22950,0.00003937,0.00012460,-0.00004408,0.00222635,0.00154449,-0.00006
 207,0.00007421,-0.00013162,0.00009182,-0.00175593,-0.00083236,-0.00318
 376,0.00000558,-0.00002462,-0.00013156,-0.00024314,-0.00017395,-0.0000
 6445,0.00010837,0.00008281,-0.00009816,0.02261395,0.00923969,-0.002569
 76,0.00004025,-0.00003628,-0.00001009,0.00004573,0.00001225,0.00005748
 ,-0.00000913,0.00012121,0.00008571,-0.08622009,-0.08062911,0.01661266,
 0.00311340,-0.00450164,-0.00237310,0.00069524,0.00150638,-0.00050661,0
 .00031535,0.00005747,0.00086911,-0.00000581,0.00000350,0.00002653,0.00
 002101,0.00001596,0.00004103,-0.00004871,-0.00001160,0.00000252,-0.000
 37262,-0.00027996,0.00002324,0.00000002,-0.00007494,0.00005130,0.00006
 979,-0.00000871,0.00006702,0.00042853,-0.00069963,-0.00019728,0.003148
 67,0.00083577,0.00226421,-0.00061960,-0.00078765,0.00045453,-0.0000157
 7,-0.00001566,-0.00004055,0.00001332,0.00004985,0.00004111,-0.00000412
 ,-0.00000282,-0.00001774,0.00001579,-0.00000028,0.00002349,0.00001093,
 -0.00000866,-0.00001258,-0.00001056,-0.00000464,-0.00001113,-0.0000663
 8,-0.00000685,-0.00001207,0.00001526,0.00003227,-0.00005128,-0.0000049
 8,-0.00006264,-0.00001008,-0.00001952,-0.00000832,-0.00001617,0.000009
 03,-0.00002486,-0.00000486,-0.00004368,0.00007346,-0.00002607,-0.00003
 809,-0.00003459,0.00000453,-0.00005309,-0.00003668,0.00010832,-0.00002
 422,-0.00001558,-0.00003027,0.00213879,0.00050223,-0.00064180,-0.00030
 494,-0.00025465,0.00005688,-0.00007210,0.00007660,-0.00021094,-0.00027
 380,-0.00004363,-0.00001221,0.00015115,-0.00089728,0.00016981,-0.00012
 935,-0.00000708,-0.00005808,-0.00425408,-0.00268060,0.00154213,0.08113
 906,0.08419914,-0.00004372,-0.00008846,0.00002375,-0.00067546,0.000031
 46,0.00016889,0.00034675,0.00054514,-0.00051453,0.00002639,-0.00004381
 ,-0.00007691,-0.00004717,0.00001409,-0.00000933,0.00003798,0.00003473,
 0.00002719,-0.00003089,0.00000289,-0.00005103,0.00001955,-0.00002161,0
 .00000732,0.00001072,-0.00000696,0.00001666,0.00000231,-0.00004680,0.0
 0002675,0.00011184,0.00012585,-0.00015998,0.00006258,-0.00003896,-0.00
 010131,0.00004094,0.00000446,-0.00001251,0.00015060,-0.00006527,0.0001
 1974,-0.00013684,-0.00006810,-0.00002466,0.00136118,-0.00028468,-0.001
 14126,-0.00007336,-0.00012453,0.00010783,-0.00055838,-0.00040669,-0.00
 023074,-0.00003151,-0.00000140,-0.00001563,0.00004014,-0.00006325,0.00
 010442,-0.00002312,-0.00005721,0.00007785,0.01248426,0.00496321,-0.003
 82662,-0.00007080,0.00000770,0.00002543,0.00002695,-0.00000770,0.00007
 400,0.00001407,0.00009364,0.00006173,0.03867189,0.01571155,-0.05525155
 ,0.00092272,-0.00241616,-0.00099589,-0.00080819,0.00039474,0.00019749,
 -0.00000276,-0.00004197,-0.00021966,-0.00000029,0.00000867,-0.00001586
 ,0.00000418,-0.00000477,-0.00000652,0.00000434,0.00000103,-0.00000488,
 0.00005385,0.00006237,0.00000878,-0.00000164,0.00002937,-0.00001239,0.
 00001670,0.00001085,-0.00002502,0.00026252,-0.00047280,0.00016736,-0.0
 0132361,-0.00059822,-0.00356461,0.00073197,0.00104320,-0.00001597,0.00
 000638,-0.00000443,0.00005225,0.00000950,-0.00001118,-0.00000348,0.000
 01256,0.00000998,-0.00000209,0.00000284,0.00000021,0.00000287,-0.00000
 354,-0.00000089,-0.00000028,0.00000903,0.00000450,-0.00000117,0.000007
 66,0.00002599,0.00003648,0.00000364,-0.00000286,-0.00000599,-0.0000074
 4,-0.00000169,-0.00001783,-0.00002526,0.00001979,-0.00001192,0.0000103
 8,-0.00000223,-0.00000822,-0.00003074,0.00002223,-0.00001648,-0.000041
 61,-0.00002029,0.00001400,-0.00002326,-0.00000829,0.00003572,-0.000005
 55,-0.00000333,-0.00000827,0.00102564,0.00021270,0.00045600,0.00031374
 ,0.00012575,0.00028626,-0.00031997,-0.00015275,0.00013109,-0.00000981,
 -0.00000316,-0.00022783,0.00002144,-0.00003403,0.00049653,-0.00014695,
 -0.00014410,-0.00002664,-0.02612842,-0.00943426,0.00516604,-0.04235949
 ,-0.01380999,0.06211947,-0.00009792,-0.00031784,0.00004758,-0.00022098
 ,-0.00017332,0.00015635,-0.00003166,-0.00029211,-0.00080769,0.00004305
 ,0.00011132,-0.00005742,-0.00026924,0.00011354,0.00011085,0.00011137,0
 .00028332,-0.00011289,-0.00005440,-0.00000815,-0.00012789,0.00000864,0
 .00000066,0.00000210,0.00000770,-0.00000843,-0.00001208,0.00001731,-0.
 00001711,-0.00001897,0.00045928,0.00001867,-0.00026467,0.00000537,0.00
 003403,-0.00000593,0.00000026,0.00002407,-0.00001169,0.00015922,-0.000
 07175,0.00009508,-0.00017412,-0.00006179,-0.00002533,0.00010433,-0.000
 31702,-0.00023548,-0.00003523,-0.00013141,0.00028900,-0.00002170,0.000
 07901,0.00044749,-0.00003055,0.00001042,0.00002194,-0.00007360,0.00003
 976,-0.00005346,-0.00005006,-0.00002637,0.00004434,-0.00195279,0.01312
 847,-0.01161387,0.00001948,-0.00004359,0.00000415,-0.00001454,-0.00000
 598,0.00005086,0.00004340,0.00002338,0.00003479,-0.04496000,0.00472392
 ,-0.00171766,0.00124722,0.00043192,-0.00117946,-0.00232424,0.00281122,
 0.00191075,-0.00003087,-0.00002990,-0.00013116,0.00000446,-0.00000373,
 -0.00002016,-0.00000128,-0.00000597,-0.00001251,0.00000726,0.00000785,
 0.00000360,0.00005405,0.00002188,-0.00001347,-0.00000642,0.00002395,-0
 .00001866,-0.00001119,0.00000003,-0.00001794,0.00001492,0.00000242,-0.
 00000707,-0.00200941,-0.00109959,-0.00091658,0.00022963,0.00029525,0.0
 0001338,-0.00000197,-0.00000570,-0.00000437,-0.00000027,-0.00001226,-0
 .00000662,0.00000378,0.00000563,0.00000198,-0.00000226,0.00000099,-0.0
 0000064,-0.00000750,0.00000206,0.00000200,0.00000662,0.00000492,-0.000
 00007,-0.00000392,0.00000153,-0.00000183,0.00000485,-0.00000036,0.0000
 0555,-0.00000792,-0.00000232,-0.00000259,-0.00000282,0.00000029,0.0000
 1756,-0.00002555,-0.00003273,-0.00002380,0.00003705,0.00002353,-0.0000
 4234,-0.00001648,-0.00001418,-0.00001128,-0.00003419,0.00000669,0.0000
 0985,0.00000099,-0.00000505,0.00000298,0.00030417,-0.00026958,0.000037
 71,-0.00009948,0.00003270,-0.00012571,-0.00026214,-0.00017043,0.000520
 54,0.00035908,0.00120077,-0.00058934,0.00011330,0.00018361,-0.00005391
 ,0.00000390,-0.00018980,0.00035033,-0.00140236,0.01076816,-0.00697085,
 0.00704135,-0.02082175,0.01627310,0.04383047,-0.00012951,-0.00031618,0
 .00031827,-0.00004225,-0.00033195,0.00005648,-0.00042791,0.00074554,-0
 .00021114,0.00017853,0.00024774,-0.00019003,-0.00041253,0.00009444,0.0
 0016993,0.00046404,-0.00009844,0.00028953,-0.00005757,-0.00008786,-0.0
 0008341,0.00000925,0.00000172,-0.00000470,0.00001103,-0.00001342,-0.00
 000076,-0.00002537,0.00002208,-0.00002513,-0.00023840,0.00014495,0.000
 19303,-0.00005785,0.00002554,0.00003747,-0.00000398,0.00003454,-0.0000
 1319,0.00011465,-0.00003460,0.00005467,0.00022688,0.00020193,0.0001186
 5,0.00100617,-0.00163752,0.00209311,0.00029751,0.00038662,-0.00051491,
 -0.00021364,0.00036440,0.00001631,-0.00002155,-0.00000237,0.00004396,-
 0.00008356,0.00008933,-0.00021932,-0.00004497,-0.00000675,0.00004188,-
 0.00210470,-0.01690646,0.01330703,0.00007757,0.00001823,-0.00001017,0.
 00001556,0.00008404,0.00009102,-0.00001952,-0.00002856,0.00001912,0.00
 673358,-0.22484267,0.12526074,-0.00137647,0.00066722,0.00037392,0.0034
 4338,-0.00322233,-0.00379633,-0.00004364,-0.00003975,-0.00015485,0.000
 00646,-0.00000748,-0.00002439,-0.00000017,-0.00000610,-0.00001497,0.00
 001003,0.00001106,0.00000284,0.00004864,0.00002202,-0.00000444,0.00000
 323,0.00001727,-0.00001484,-0.00001824,-0.00000308,-0.00000527,0.00026
 868,-0.00024576,0.00006381,-0.00117082,-0.00057574,-0.00047610,0.00022
 840,0.00013687,-0.00005636,0.00000040,-0.00000266,0.00000320,-0.000003
 75,-0.00000789,-0.00000598,0.00000538,0.00000786,-0.00000056,-0.000004
 75,0.00000078,-0.00000157,-0.00001118,0.00000373,0.00000431,0.00000741
 ,0.00000586,-0.00000020,-0.00001712,0.00001176,-0.00001576,-0.00004007
 ,0.00001024,-0.00005142,0.00000133,0.00001512,0.00000942,-0.00003420,0
 .00002717,-0.00007608,0.00005266,0.00006514,0.00004550,-0.00013673,-0.
 00002469,0.00002952,-0.00000047,0.00002926,-0.00000797,0.00001480,-0.0
 0002049,0.00002269,0.00000751,0.00002119,-0.00007541,-0.00011142,0.000
 18916,-0.00029250,0.00006866,-0.00001935,-0.00004733,0.00071800,0.0004
 7578,-0.00036127,0.00024814,-0.00119371,0.00137880,0.00000760,0.000349
 03,-0.00011417,-0.00001366,0.00028998,-0.00004967,-0.00065019,0.006386
 22,-0.00508123,0.00371329,-0.00669909,0.00463115,-0.01032102,0.2449147
 7,0.00009243,0.00004284,-0.00028056,0.00005296,0.00008594,0.00002454,-
 0.00102499,-0.00005352,-0.00082440,0.00003335,-0.00003578,0.00001219,0
 .00010671,-0.00005109,-0.00000853,-0.00023575,0.00000664,-0.00037941,0
 .00001951,0.00002949,0.00000233,0.00001137,0.00000195,0.00001004,0.000
 02213,-0.00001976,0.00000330,0.00000242,0.00002895,0.00003478,-0.00031
 196,-0.00061672,-0.00129795,0.00003998,-0.00001832,0.00001100,0.000014
 97,-0.00000865,0.00000593,-0.00005727,0.00003751,-0.00001987,-0.000026
 50,-0.00014872,-0.00007520,-0.00023404,-0.00052545,0.00045783,0.000171
 51,-0.00001193,-0.00061195,-0.00000239,0.00005951,-0.00021385,0.000002
 02,-0.00000393,-0.00003007,0.00022360,0.00005762,0.00010310,0.00000551
 ,-0.00000484,-0.00000548,0.00021962,-0.01218983,0.00705838,-0.00010350
 ,0.00003606,0.00002556,-0.00001318,-0.00000619,0.00002752,0.00000988,0
 .00002682,-0.00000228,-0.00349988,0.12775525,-0.13219039,-0.00052410,-
 0.00018445,0.00055792,0.00108648,-0.00171991,-0.00066940,0.00000357,0.
 00000432,0.00008972,-0.00000205,0.00000660,0.00000688,0.00000425,0.000
 00264,0.00000951,-0.00000479,-0.00000284,-0.00000001,-0.00003685,-0.00
 002059,0.00000328,-0.00000167,-0.00000516,0.00000471,0.00001351,0.0000
 0010,0.00000402,0.00000518,-0.00011571,0.00000003,0.00059212,0.0004037
 9,0.00037727,-0.00008586,-0.00015304,-0.00004374,-0.00000175,-0.000002
 64,-0.00000103,0.00000330,0.00000444,0.00000608,-0.00000031,-0.0000008
 8,-0.00000207,0.00000353,0.00000014,0.00000390,0.00000277,-0.00000254,
 -0.00000314,-0.00000140,-0.00000053,-0.00000195,0.00000493,0.00002267,
 0.00004301,0.00000524,-0.00001290,-0.00000036,-0.00000002,-0.00000390,
 0.00000223,-0.00001220,0.00001227,0.00000727,-0.00000195,-0.00000234,-
 0.00000037,-0.00000390,0.00000749,0.00001199,-0.00001432,0.00000319,0.
 00000796,-0.00000572,0.00000142,-0.00000301,0.00000419,0.00000064,0.00
 000192,-0.00021795,-0.00014913,0.00000574,0.00002695,0.00019057,-0.000
 17146,-0.00015831,0.00020401,0.00013216,0.00030098,-0.00053973,0.00085
 657,-0.00000208,-0.00008452,-0.00018263,0.00036669,-0.00013393,0.00041
 335,0.00043748,0.02256307,-0.01477850,-0.00204789,0.00180963,-0.003331
 67,0.00475492,-0.13662992,0.14481412,-0.00706306,-0.00154344,0.0004270
 4,0.00073416,0.00151661,-0.00049281,-0.00053951,-0.00075757,0.00052740
 ,-0.00028370,0.00023630,0.00021316,-0.00029095,0.00018417,0.00001743,0
 .00023184,-0.00015347,0.00018660,0.00024208,-0.00038251,-0.00029655,-0
 .00009526,0.00016955,-0.00002556,0.00000084,0.00002289,-0.00003239,0.0
 0004415,0.00004186,-0.00002285,0.00126318,0.00010183,-0.00036361,-0.00
 077051,-0.00199617,-0.00000004,-0.00014385,0.00005819,0.00002936,-0.00
 001880,-0.00004410,-0.00003508,0.00000589,-0.00003832,0.00007083,-0.00
 750111,0.00248050,0.00019793,-0.00002715,0.00040228,-0.00019306,0.0378
 4937,0.02639698,-0.00529344,-0.00020822,0.00008143,0.00050561,-0.00020
 890,0.00035430,0.00032216,-0.00077798,0.00098734,-0.00011938,0.0006445
 4,-0.00000159,-0.00048327,0.00096927,0.00004076,-0.00021205,0.00059141
 ,0.00119688,-0.00170898,0.00044055,-0.00059836,-0.00000182,0.00004156,
 -0.00007171,-0.00000688,-0.00000715,0.00003242,0.00044246,0.00003553,0
 .00032754,0.00012809,-0.00026563,-0.00186506,-0.00053517,0.00002264,-0
 .00004314,0.00004683,-0.00006429,0.00004859,-0.00015791,0.00000194,0.0
 0005224,-0.00001601,-0.00000785,0.00001431,0.00000975,0.00140131,-0.00
 025488,-0.00079190,-0.00031438,-0.00006834,0.00033694,-0.13916008,0.25
 465531,-0.02052360,0.00026564,-0.00173711,0.00134513,-0.00028618,0.000
 34202,0.00061438,-0.00218660,0.00009269,0.00024474,-0.00019052,0.00008
 858,0.00006538,-0.00014026,-0.00006370,0.00006727,-0.00008235,0.000011
 67,-0.00006334,-0.00002472,0.00000790,0.00001814,-0.00003833,-0.000015
 45,0.00005598,0.00013731,-0.00013372,-0.00015544,-0.00016322,-0.000387
 25,0.00044846,-0.00050548,0.00040176,-0.00044750,-0.00019328,-0.000425
 83,0.00026799,-0.00007112,-0.00033323,0.00066765,-0.00044960,-0.000397
 64,0.00030088,0.00018721,0.00009218,-0.00017817,-0.00006713,0.00003925
 ,0.00001251,-0.00011412,-0.00021109,0.00025180,0.00019090,-0.00003365,
 -0.00002367,0.00019731,0.00004608,-0.00000150,-0.00007791,-0.00008154,
 0.00001923,0.00049625,-0.00005624,0.00003844,-0.00036755,0.00032048,0.
 00007462,0.00003761,-0.00022755,0.00007381,0.00010211,0.00001095,0.000
 06837,-0.00021813,-0.00017867,-0.00017057,-0.00000542,-0.00015154,-0.0
 0001148,0.11679570,-0.00229682,0.00553187,-0.00269198,-0.00107728,-0.0
 0086437,0.00077836,0.00126950,-0.00035696,-0.00033620,0.00027003,0.000
 08289,0.00019589,0.00031281,-0.00082903,0.00004518,-0.00023756,0.00012
 721,0.00022167,-0.00101243,0.00075546,-0.00001068,0.00017562,-0.000205
 36,-0.00000271,0.00001221,-0.00007422,-0.00002479,-0.00004435,-0.00021
 484,0.00005795,-0.00154064,-0.00054167,0.00029590,0.00158075,0.0033909
 1,-0.00059585,0.00053854,-0.00031476,-0.00005348,-0.00016205,0.0002661
 9,0.00005153,0.00004505,0.00011787,-0.00013627,0.01434279,0.00616096,-
 0.00301634,-0.00005839,-0.00078172,0.00031756,0.01736199,-0.07737477,0
 .01961909,0.00002067,-0.00049926,-0.00167805,-0.00118592,-0.00336908,-
 0.00070109,-0.00051339,-0.00356359,0.00177460,-0.00247562,-0.00080783,
 0.00222761,-0.00161578,-0.00033907,0.00012721,-0.00077702,-0.00081419,
 0.00187627,-0.00095387,0.00205354,0.00085390,-0.00022121,0.00028740,-0
 .00007295,0.00004276,-0.00025038,-0.00184502,-0.00019999,-0.00069815,0
 .00010070,-0.00037397,0.00426378,0.00190436,-0.00027003,0.00043679,-0.
 00032089,0.00014944,-0.00004113,0.00046762,-0.00019017,-0.00025117,0.0
 0039412,-0.00026098,-0.00043480,-0.00016471,0.00069085,0.00034520,-0.0
 0105353,0.00067671,0.00128905,-0.00046416,0.25696282,-0.86846184,0.066
 80984,-0.00055922,0.00530593,-0.00463455,0.00034026,-0.00142810,-0.002
 01860,0.00176309,-0.00094767,0.00104181,-0.00070415,0.00032099,0.00013
 210,0.00035301,0.00035438,-0.00007641,0.00023762,-0.00001194,0.0001234
 5,-0.00001006,0.00008383,-0.00007708,0.00037588,0.00006285,-0.00016106
 ,-0.00042145,0.00034213,0.00039355,0.00035101,0.00075373,-0.00087506,0
 .00058648,-0.00110412,0.00087767,-0.00037280,0.00056282,-0.00008029,-0
 .00166589,-0.00077373,-0.00029420,0.00046058,0.00043067,-0.00033951,-0
 .00075529,-0.00023246,0.00059793,0.00020890,-0.00002740,-0.00010783,0.
 00021185,0.00021961,-0.00037056,-0.00028614,0.00011258,0.00011341,-0.0
 0073997,-0.00030286,-0.00011389,0.00019441,0.00015952,0.00001931,-0.00
 082085,0.00010009,0.00005502,0.00083595,-0.00086812,0.00005763,-0.0001
 1131,0.00035805,-0.00030827,-0.00024539,-0.00016923,-0.00029076,0.0003
 4813,0.00042329,0.00035560,0.00004328,0.00025633,0.00005384,-0.2786030
 2,0.93199789,0.00068424,-0.00319815,-0.00679419,-0.00007996,-0.0005517
 5,0.00038774,0.00016362,0.00029747,-0.00003175,0.00034476,0.00009517,0
 .00045503,-0.00003583,0.00001531,-0.00009206,0.00017460,0.00012409,0.0
 0049577,-0.00002302,-0.00026880,-0.00027765,0.00000938,-0.00005413,0.0
 0000742,-0.00002975,-0.00001205,-0.00006591,-0.00000164,0.00000029,0.0
 0000007,-0.00016172,0.00008636,-0.00022471,-0.00015173,-0.00038132,0.0
 0010046,-0.00002380,0.00005161,0.00000681,0.00001202,0.00005851,-0.000
 02654,0.00005348,-0.00009734,0.00004898,-0.00102461,-0.00125500,-0.000
 72691,-0.00001670,0.00005090,-0.00000964,-0.00397636,0.01896793,0.0351
 7228,-0.00002290,-0.00014573,-0.00000173,0.00026387,0.00034067,-0.0001
 4283,-0.00017858,0.00036035,-0.00011757,-0.00007541,0.00006434,-0.0002
 8231,-0.00072038,-0.00017891,0.00018327,0.00010606,0.00004848,0.000341
 18,0.00015614,-0.00013882,0.00005111,0.00004018,-0.00007889,0.00011593
 ,0.00006600,-0.00005970,0.00019099,0.00018722,0.00005184,0.00011177,0.
 00120873,-0.00469619,0.00057634,-0.00000504,-0.00005720,-0.00000871,-0
 .00000382,0.00006137,0.00000804,0.00008999,0.00007844,-0.00001335,-0.0
 0008154,0.00009959,-0.00001542,0.00016447,-0.00001410,0.00030362,-0.00
 006749,-0.00007832,0.00006127,-0.02105220,0.06746792,-0.06536879,-0.00
 058724,0.00130322,0.00119993,-0.00022260,0.00037778,-0.00027329,-0.000
 16127,0.00002618,-0.00039520,0.00016970,-0.00008008,0.00000381,-0.0001
 8644,-0.00002463,0.00004070,-0.00000284,-0.00000648,0.00000175,-0.0000
 3873,0.00000700,0.00000847,-0.00003824,-0.00001077,0.00000903,0.000107
 51,0.00003526,-0.00001193,0.00013632,0.00008292,0.00002223,0.00016396,
 -0.00002629,0.00007190,-0.00004956,-0.00005156,0.00002994,0.00020270,0
 .00010082,-0.00047883,0.00015711,0.00009243,-0.00002296,0.00003955,0.0
 0001369,-0.00003843,0.00006556,0.00004174,-0.00001124,-0.00002405,-0.0
 0002209,0.00000465,-0.00001371,0.00001308,-0.00002908,0.00005186,0.000
 04820,0.00002318,-0.00003940,-0.00005259,0.00001422,0.00017031,0.00001
 508,-0.00007966,-0.00013623,0.00014634,0.00002462,-0.00000076,-0.00006
 587,0.00005576,0.00001451,0.00005655,0.00004273,-0.00004460,-0.0000052
 7,-0.00007317,0.00000659,-0.00004502,-0.00000685,0.02426765,-0.0790238
 8,0.03544974\\0.00000617,0.00000643,-0.00000522,0.00000587,-0.00001422
 ,-0.00000692,0.00000496,-0.00000538,-0.00000195,-0.00000624,0.00000438
 ,0.00000464,0.00000351,-0.00000127,0.00000021,-0.00000294,0.00000234,-
 0.00000045,0.00000698,0.00000895,0.00001580,0.00000069,0.00000106,-0.0
 0000246,0.00000087,0.00000005,-0.00000187,0.00000241,-0.00000047,-0.00
 000078,0.00000610,0.00001010,0.00000880,-0.00002946,0.00001448,-0.0000
 0704,0.00000422,0.00000099,0.00000219,-0.00000235,-0.00000461,-0.00000
 440,-0.00000369,-0.00000824,-0.00000549,0.00001015,0.00000062,0.000006
 93,-0.00000231,-0.00000283,-0.00000080,-0.00002784,-0.00001099,0.00002
 138,-0.00000243,0.00001096,0.00000322,0.00000306,-0.00000561,0.0000021
 4,0.00000831,0.00000088,-0.00000249,-0.00001448,-0.00001138,-0.0000021
 5,-0.00000218,0.00000474,-0.00000241,0.00000522,-0.00000766,0.00000450
 ,-0.00000106,0.00000382,-0.00000175,-0.00000421,0.00000101,0.00000349,
 0.00000723,0.00000556,-0.00000790,-0.00000240,0.00000643,0.00000459,0.
 00000145,-0.00001346,-0.00000943,0.00000232,-0.00000230,-0.00000139,0.
 00000091,-0.00000686,-0.00000499,0.00000119,0.00000178,-0.00000107,-0.
 00000338,0.00000041,-0.00000226,0.00000224,-0.00000020,0.00000993,0.00
 000313,-0.00000059,0.00000417,0.00004453,0.00003164,-0.00002441,-0.000
 01889,0.00000651,0.00002282,0.00000197,0.00000758,-0.00002816,-0.00000
 087,0.00000236,-0.00000124,0.00000012,0.00000102,-0.00000119,-0.000006
 24,0.00000105,-0.00000085,-0.00000053,0.00000095,-0.00000073,0.0000011
 1,-0.00000217,-0.00000386,-0.00000282,-0.00000028,-0.00000019,0.000001
 01,-0.00000475,0.00000225,-0.00000064,0.00000103,0.00000288,0.00000349
 ,-0.00000215,-0.00000266,-0.00000422,0.00000197,0.00000036,0.00000061,
 -0.00000151,-0.00000124,0.00000005,-0.00000384,-0.00000110,-0.00000063
 ,-0.00000338,0.00000095,-0.00000021,-0.00000249,0.00000004,0.00000035,
 -0.00000110,-0.00000124,-0.00000457,0.00000135,0.00000148,0.00000280,0
 .00000244,-0.00000043,0.00000329,-0.00000113,0.00000301,-0.00000404,0.
 00000084,0.00000437,0.00000505,-0.00000336,-0.00000406,-0.00000332,-0.
 00000129,0.00000315,-0.00000093,0.00000252,-0.00000064,0.00001459,0.00
 000723,-0.00000160,0.00000544,-0.00000476,0.00000590,-0.00001849,-0.00
 002519,0.00000764\\\@


 CONFIDENCE: THAT QUIET ASSURED FEELING YOU HAVE
 JUST BEFORE YOU FALL FLAT ON YOUR FACE.
 Job cpu time:       0 days 17 hours 59 minutes  0.2 seconds.
 Elapsed time:       0 days  1 hours  7 minutes 29.9 seconds.
 File lengths (MBytes):  RWF=   2077 Int=      0 D2E=      0 Chk=     30 Scr=      1
 Normal termination of Gaussian 16 at Fri Nov  9 01:20:38 2018.
