 Entering Gaussian System, Link 0=g16
 Initial command:
 /cluster/chemistry/gaussian/g16/l1.exe "/scratch/js1212.15144/scratch/Gau-15167.inp" -scrdir="/scratch/js1212.15144/scratch/"
 Entering Link 1 = /cluster/chemistry/gaussian/g16/l1.exe PID=     15168.
  
 Copyright (c) 1988,1990,1992,1993,1995,1998,2003,2009,2016,
            Gaussian, Inc.  All Rights Reserved.
  
 This is part of the Gaussian(R) 16 program.  It is based on
 the Gaussian(R) 09 system (copyright 2009, Gaussian, Inc.),
 the Gaussian(R) 03 system (copyright 2003, Gaussian, Inc.),
 the Gaussian(R) 98 system (copyright 1998, Gaussian, Inc.),
 the Gaussian(R) 94 system (copyright 1995, Gaussian, Inc.),
 the Gaussian 92(TM) system (copyright 1992, Gaussian, Inc.),
 the Gaussian 90(TM) system (copyright 1990, Gaussian, Inc.),
 the Gaussian 88(TM) system (copyright 1988, Gaussian, Inc.),
 the Gaussian 86(TM) system (copyright 1986, Carnegie Mellon
 University), and the Gaussian 82(TM) system (copyright 1983,
 Carnegie Mellon University). Gaussian is a federally registered
 trademark of Gaussian, Inc.
  
 This software contains proprietary and confidential information,
 including trade secrets, belonging to Gaussian, Inc.
  
 This software is provided under written license and may be
 used, copied, transmitted, or stored only in accord with that
 written license.
  
 The following legend is applicable only to US Government
 contracts under FAR:
  
                    RESTRICTED RIGHTS LEGEND
  
 Use, reproduction and disclosure by the US Government is
 subject to restrictions as set forth in subparagraphs (a)
 and (c) of the Commercial Computer Software - Restricted
 Rights clause in FAR 52.227-19.
  
 Gaussian, Inc.
 340 Quinnipiac St., Bldg. 40, Wallingford CT 06492
  
  
 ---------------------------------------------------------------
 Warning -- This program may not be used in any manner that
 competes with the business of Gaussian, Inc. or will provide
 assistance to any competitor of Gaussian, Inc.  The licensee
 of this program is prohibited from giving any competitor of
 Gaussian, Inc. access to this program.  By using this program,
 the user acknowledges that Gaussian, Inc. is engaged in the
 business of creating and licensing software in the field of
 computational chemistry and represents and warrants to the
 licensee that it is not a competitor of Gaussian, Inc. and that
 it will not use this program in any manner prohibited above.
 ---------------------------------------------------------------
  

 Cite this work as:
 Gaussian 16, Revision A.03,
 M. J. Frisch, G. W. Trucks, H. B. Schlegel, G. E. Scuseria, 
 M. A. Robb, J. R. Cheeseman, G. Scalmani, V. Barone, 
 G. A. Petersson, H. Nakatsuji, X. Li, M. Caricato, A. V. Marenich, 
 J. Bloino, B. G. Janesko, R. Gomperts, B. Mennucci, H. P. Hratchian, 
 J. V. Ortiz, A. F. Izmaylov, J. L. Sonnenberg, D. Williams-Young, 
 F. Ding, F. Lipparini, F. Egidi, J. Goings, B. Peng, A. Petrone, 
 T. Henderson, D. Ranasinghe, V. G. Zakrzewski, J. Gao, N. Rega, 
 G. Zheng, W. Liang, M. Hada, M. Ehara, K. Toyota, R. Fukuda, 
 J. Hasegawa, M. Ishida, T. Nakajima, Y. Honda, O. Kitao, H. Nakai, 
 T. Vreven, K. Throssell, J. A. Montgomery, Jr., J. E. Peralta, 
 F. Ogliaro, M. J. Bearpark, J. J. Heyd, E. N. Brothers, K. N. Kudin, 
 V. N. Staroverov, T. A. Keith, R. Kobayashi, J. Normand, 
 K. Raghavachari, A. P. Rendell, J. C. Burant, S. S. Iyengar, 
 J. Tomasi, M. Cossi, J. M. Millam, M. Klene, C. Adamo, R. Cammi, 
 J. W. Ochterski, R. L. Martin, K. Morokuma, O. Farkas, 
 J. B. Foresman, and D. J. Fox, Gaussian, Inc., Wallingford CT, 2016.
 
 ******************************************
 Gaussian 16:  ES64L-G16RevA.03 25-Dec-2016
                11-Nov-2018 
 ******************************************
 %rwf=/scratch/js1212.15144/2-Full-Trans-B-GPNMR-NoSpin.rwf
 %nosave
 %nprocshared=16
 Will use up to   16 processors via shared memory.
 %mem=3000MB
 %chk=/scratch/js1212.15144/2-Full-Trans-B-GPOF.chk
 ----------------------------------------------------------------------
 # nmr genecp pbe1pbe EmpiricalDispersion=GD3BJ scrf=(SMD,solvent=water
 ) geom=allcheck
 ----------------------------------------------------------------------
 1/29=7,38=1,172=1/1;
 2/12=2,40=1/2;
 3/5=7,11=2,14=-4,16=1,17=8,25=1,30=1,70=32201,72=1,74=-13,124=41/1,2,3,8;
 4//1;
 5/5=2,38=5,53=1/2;
 8/6=1,10=90,11=11/1;
 10/13=100,45=16/2;
 6/7=2,8=2,9=2,10=2,28=1/1;
 99/9=1/99;
 Structure from the checkpoint file:  "/scratch/js1212.15144/2-Full-Trans-B-GPOF.chk"
 -------------------
 Title Card Required
 -------------------
 Charge =  0 Multiplicity = 1
 Redundant internal coordinates found in file.  (old form).
 N,0,-0.8253772184,1.4586272729,-0.0629366187
 C,0,-2.0554969275,1.8809763579,0.2705927223
 C,0,0.0860198548,2.3042194136,-0.5726795816
 C,0,-2.4328431665,3.2077594978,0.089544359
 C,0,-1.4972810845,4.1038496793,-0.4196172242
 C,0,-0.2237189045,3.6515839061,-0.7517284961
 C,0,-2.910640904,0.8369100674,0.9129408589
 H,0,-3.4394279561,3.5299258551,0.3580527186
 H,0,-1.760772491,5.1537171894,-0.5612236478
 H,0,0.5272307397,4.3313232411,-1.1554521543
 C,0,1.4023197812,1.7027542578,-0.9549404003
 N,0,-2.6776899648,-0.4997575764,0.3270971601
 H,0,-3.9761846622,1.1203156544,0.8931015313
 H,0,-2.5568716512,0.751406375,1.9561001221
 H,0,1.3411038321,1.4010477632,-2.0142930868
 P,0,1.7149529342,0.1087170926,-0.022429775
 H,0,2.220573248,2.4326166903,-0.8669717156
 Ru,0,-0.4068815817,-0.580173982,0.2985748001
 C,0,-3.2155382156,-0.5890367444,-1.049594441
 C,0,2.8864764447,-0.8159608013,-1.2036827688
 C,0,-3.2770750216,-1.4848037333,1.2560022773
 C,0,2.6490589712,0.6700221628,1.5359493428
 C,0,2.0476055744,-1.4276674128,-2.3289740463
 C,0,3.5777872478,-1.9540473169,-0.4488273269
 C,0,3.9371249712,0.0996206387,-1.8400431658
 C,0,1.7728305082,1.7619700186,2.1637059979
 C,0,4.0551872501,1.2169090943,1.3042993346
 C,0,2.6946179027,-0.5100763808,2.5105161072
 H,0,-0.448140068,-0.8254653671,-1.2924942792
 H,0,-2.6971164708,0.1825107627,-1.6365154619
 C,0,-4.7231325382,-0.4437910254,-1.1994369747
 H,0,-2.876017355,-1.5485968967,-1.4598561894
 H,0,-2.6894407441,-1.3765982364,2.1800184271
 C,0,-3.2550294788,-2.9147082306,0.7622257916
 H,0,-4.3188616285,-1.1845531936,1.4832096845
 C,0,0.0464563928,-2.3338966547,0.5009280476
 O,0,-0.7363499864,-0.048159839,2.3721765197
 H,0,-0.368191014,-0.7242695704,2.9508224888
 H,0,-2.2417069611,-3.2248136263,0.4751560181
 H,0,-3.9235629756,-3.0808798021,-0.0959140809
 H,0,-3.5928133265,-3.5765904511,1.5733702988
 H,0,-4.9852094257,-0.5413326498,-2.2637304513
 H,0,-5.0919254216,0.5374412662,-0.8646897678
 H,0,-5.2784062935,-1.2202243708,-0.6523554968
 H,0,2.729477457,-1.9192106063,-3.0433111206
 H,0,1.4682410871,-0.6712322807,-2.8793258938
 H,0,1.3339659078,-2.1685908532,-1.9497709687
 H,0,4.1265530026,-2.5802050591,-1.1720066661
 H,0,2.8542152016,-2.601131811,0.0677700318
 H,0,4.3078098044,-1.5859789408,0.2853567201
 H,0,4.5849548726,-0.5085504472,-2.4933720299
 H,0,4.5831549645,0.5941473557,-1.1056926407
 H,0,3.4810180523,0.8740525165,-2.4745412158
 H,0,4.763261339,0.4463569857,0.9678384807
 H,0,4.4389195984,1.6172796116,2.2580338289
 H,0,4.06996356,2.0450774483,0.5786022659
 H,0,3.3191535863,-1.3389933243,2.152477752
 H,0,1.6796811008,-0.8882247977,2.6920634637
 H,0,3.1109956555,-0.1660042667,3.4720723233
 H,0,2.2187375411,2.0492286798,3.1314970641
 H,0,0.7527643368,1.3749497832,2.3471262321
 H,0,1.7328679185,2.6726754741,1.5453474752
 O,0,0.3922927977,-3.4442758629,0.5961974408
 Recover connectivity data from disk.
                           ----------------------------
                           !    Current Parameters    !
                           ! (Angstroms and Degrees)  !
 --------------------------                            --------------------------
 ! Name  Definition              Value                                          !
 --------------------------------------------------------------------------------
 ! R1    R(1,2)                  1.3427                                         !
 ! R2    R(1,3)                  1.3437                                         !
 ! R3    R(1,18)                 2.1125                                         !
 ! R4    R(2,4)                  1.3912                                         !
 ! R5    R(2,7)                  1.4946                                         !
 ! R6    R(3,6)                  1.3941                                         !
 ! R7    R(3,11)                 1.4968                                         !
 ! R8    R(4,5)                  1.3919                                         !
 ! R9    R(4,8)                  1.0905                                         !
 ! R10   R(5,6)                  1.3917                                         !
 ! R11   R(5,9)                  1.0917                                         !
 ! R12   R(6,10)                 1.0904                                         !
 ! R13   R(7,12)                 1.4779                                         !
 ! R14   R(7,13)                 1.1028                                         !
 ! R15   R(7,14)                 1.1048                                         !
 ! R16   R(11,15)                1.1032                                         !
 ! R17   R(11,16)                1.873                                          !
 ! R18   R(11,17)                1.1                                            !
 ! R19   R(12,19)                1.4807                                         !
 ! R20   R(12,21)                1.4807                                         !
 ! R21   R(16,18)                2.2538                                         !
 ! R22   R(16,20)                1.9034                                         !
 ! R23   R(16,22)                1.9016                                         !
 ! R24   R(18,29)                1.6104                                         !
 ! R25   R(18,36)                1.8226                                         !
 ! R26   R(18,37)                2.166                                          !
 ! R27   R(19,30)                1.0993                                         !
 ! R28   R(19,31)                1.522                                          !
 ! R29   R(19,32)                1.0974                                         !
 ! R30   R(20,23)                1.5311                                         !
 ! R31   R(20,24)                1.5307                                         !
 ! R32   R(20,25)                1.532                                          !
 ! R33   R(21,33)                1.1004                                         !
 ! R34   R(21,34)                1.5129                                         !
 ! R35   R(21,35)                1.1077                                         !
 ! R36   R(22,26)                1.5343                                         !
 ! R37   R(22,27)                1.5264                                         !
 ! R38   R(22,28)                1.5312                                         !
 ! R39   R(23,45)                1.1031                                         !
 ! R40   R(23,46)                1.1003                                         !
 ! R41   R(23,47)                1.0964                                         !
 ! R42   R(24,48)                1.1028                                         !
 ! R43   R(24,49)                1.0996                                         !
 ! R44   R(24,50)                1.0988                                         !
 ! R45   R(25,51)                1.1029                                         !
 ! R46   R(25,52)                1.096                                          !
 ! R47   R(25,53)                1.1002                                         !
 ! R48   R(26,60)                1.1036                                         !
 ! R49   R(26,61)                1.1063                                         !
 ! R50   R(26,62)                1.1015                                         !
 ! R51   R(27,54)                1.0992                                         !
 ! R52   R(27,55)                1.1032                                         !
 ! R53   R(27,56)                1.1012                                         !
 ! R54   R(28,57)                1.0979                                         !
 ! R55   R(28,58)                1.0982                                         !
 ! R56   R(28,59)                1.1029                                         !
 ! R57   R(31,42)                1.1004                                         !
 ! R58   R(31,43)                1.1004                                         !
 ! R59   R(31,44)                1.1002                                         !
 ! R60   R(34,39)                1.0979                                         !
 ! R61   R(34,40)                1.1004                                         !
 ! R62   R(34,41)                1.1001                                         !
 ! R63   R(36,63)                1.1669                                         !
 ! R64   R(37,38)                0.9631                                         !
 ! A1    A(2,1,3)              121.1778                                         !
 ! A2    A(2,1,18)             116.2681                                         !
 ! A3    A(3,1,18)             122.5413                                         !
 ! A4    A(1,2,4)              121.0743                                         !
 ! A5    A(1,2,7)              114.2802                                         !
 ! A6    A(4,2,7)              124.5361                                         !
 ! A7    A(1,3,6)              120.4143                                         !
 ! A8    A(1,3,11)             116.1345                                         !
 ! A9    A(6,3,11)             123.4324                                         !
 ! A10   A(2,4,5)              118.6363                                         !
 ! A11   A(2,4,8)              120.0054                                         !
 ! A12   A(5,4,8)              121.3527                                         !
 ! A13   A(4,5,6)              119.5484                                         !
 ! A14   A(4,5,9)              120.2881                                         !
 ! A15   A(6,5,9)              120.1631                                         !
 ! A16   A(3,6,5)              119.1283                                         !
 ! A17   A(3,6,10)             119.8047                                         !
 ! A18   A(5,6,10)             121.0649                                         !
 ! A19   A(2,7,12)             111.7924                                         !
 ! A20   A(2,7,13)             111.4429                                         !
 ! A21   A(2,7,14)             106.0597                                         !
 ! A22   A(12,7,13)            112.1857                                         !
 ! A23   A(12,7,14)            104.7032                                         !
 ! A24   A(13,7,14)            110.2593                                         !
 ! A25   A(3,11,15)            107.8382                                         !
 ! A26   A(3,11,16)            111.1989                                         !
 ! A27   A(3,11,17)            111.5376                                         !
 ! A28   A(15,11,16)           104.7495                                         !
 ! A29   A(15,11,17)           107.4298                                         !
 ! A30   A(16,11,17)           113.6223                                         !
 ! A31   A(7,12,19)            111.4589                                         !
 ! A32   A(7,12,21)            106.8102                                         !
 ! A33   A(19,12,21)           113.336                                          !
 ! A34   A(11,16,18)           100.0144                                         !
 ! A35   A(11,16,20)           101.9584                                         !
 ! A36   A(11,16,22)           103.8147                                         !
 ! A37   A(18,16,20)           121.2886                                         !
 ! A38   A(18,16,22)           115.8456                                         !
 ! A39   A(20,16,22)           110.4655                                         !
 ! A40   A(1,18,16)             82.365                                          !
 ! A41   A(1,18,29)             88.4443                                         !
 ! A42   A(1,18,37)             84.0674                                         !
 ! A43   A(16,18,29)            85.9837                                         !
 ! A44   A(16,18,36)            94.3443                                         !
 ! A45   A(16,18,37)           101.799                                          !
 ! A46   A(29,18,36)            88.2524                                         !
 ! A47   A(36,18,37)            99.6648                                         !
 ! A48   A(12,19,30)           106.4257                                         !
 ! A49   A(12,19,31)           116.4608                                         !
 ! A50   A(12,19,32)           106.7334                                         !
 ! A51   A(30,19,31)           110.3397                                         !
 ! A52   A(30,19,32)           105.5559                                         !
 ! A53   A(31,19,32)           110.6768                                         !
 ! A54   A(16,20,23)           108.2398                                         !
 ! A55   A(16,20,24)           109.4592                                         !
 ! A56   A(16,20,25)           112.9266                                         !
 ! A57   A(23,20,24)           108.2309                                         !
 ! A58   A(23,20,25)           108.0127                                         !
 ! A59   A(24,20,25)           109.844                                          !
 ! A60   A(12,21,33)           104.194                                          !
 ! A61   A(12,21,34)           114.7153                                         !
 ! A62   A(12,21,35)           109.2115                                         !
 ! A63   A(33,21,34)           111.0524                                         !
 ! A64   A(33,21,35)           107.6586                                         !
 ! A65   A(34,21,35)           109.6833                                         !
 ! A66   A(16,22,26)           105.3569                                         !
 ! A67   A(16,22,27)           115.7149                                         !
 ! A68   A(16,22,28)           107.9822                                         !
 ! A69   A(26,22,27)           109.4623                                         !
 ! A70   A(26,22,28)           107.7629                                         !
 ! A71   A(27,22,28)           110.2012                                         !
 ! A72   A(20,23,45)           108.3788                                         !
 ! A73   A(20,23,46)           112.4226                                         !
 ! A74   A(20,23,47)           111.8653                                         !
 ! A75   A(45,23,46)           107.9332                                         !
 ! A76   A(45,23,47)           108.9772                                         !
 ! A77   A(46,23,47)           107.1483                                         !
 ! A78   A(20,24,48)           108.875                                          !
 ! A79   A(20,24,49)           111.8409                                         !
 ! A80   A(20,24,50)           112.3646                                         !
 ! A81   A(48,24,49)           107.5411                                         !
 ! A82   A(48,24,50)           107.3219                                         !
 ! A83   A(49,24,50)           108.6862                                         !
 ! A84   A(20,25,51)           108.6224                                         !
 ! A85   A(20,25,52)           113.3025                                         !
 ! A86   A(20,25,53)           112.0815                                         !
 ! A87   A(51,25,52)           107.4269                                         !
 ! A88   A(51,25,53)           106.8605                                         !
 ! A89   A(52,25,53)           108.2512                                         !
 ! A90   A(22,26,60)           108.2573                                         !
 ! A91   A(22,26,61)           110.2075                                         !
 ! A92   A(22,26,62)           112.2985                                         !
 ! A93   A(60,26,61)           108.5544                                         !
 ! A94   A(60,26,62)           106.962                                          !
 ! A95   A(61,26,62)           110.4166                                         !
 ! A96   A(22,27,54)           112.873                                          !
 ! A97   A(22,27,55)           108.6169                                         !
 ! A98   A(22,27,56)           112.4458                                         !
 ! A99   A(54,27,55)           107.1543                                         !
 ! A100  A(54,27,56)           108.4707                                         !
 ! A101  A(55,27,56)           106.9835                                         !
 ! A102  A(22,28,57)           113.0329                                         !
 ! A103  A(22,28,58)           110.0661                                         !
 ! A104  A(22,28,59)           109.0088                                         !
 ! A105  A(57,28,58)           108.6423                                         !
 ! A106  A(57,28,59)           107.7649                                         !
 ! A107  A(58,28,59)           108.1922                                         !
 ! A108  A(19,31,42)           108.8247                                         !
 ! A109  A(19,31,43)           112.7758                                         !
 ! A110  A(19,31,44)           112.5584                                         !
 ! A111  A(42,31,43)           107.0641                                         !
 ! A112  A(42,31,44)           107.3479                                         !
 ! A113  A(43,31,44)           107.9914                                         !
 ! A114  A(21,34,39)           111.4531                                         !
 ! A115  A(21,34,40)           112.8537                                         !
 ! A116  A(21,34,41)           108.8767                                         !
 ! A117  A(39,34,40)           108.3103                                         !
 ! A118  A(39,34,41)           107.8337                                         !
 ! A119  A(40,34,41)           107.314                                          !
 ! A120  A(18,37,38)           110.1591                                         !
 ! A121  L(1,18,36,16,-1)      176.7092                                         !
 ! A122  L(29,18,37,1,-1)      172.5117                                         !
 ! A123  L(18,36,63,20,-1)     176.7423                                         !
 ! A124  L(1,18,36,16,-2)      183.0967                                         !
 ! A125  L(29,18,37,1,-2)      171.0565                                         !
 ! A126  L(18,36,63,20,-2)     180.2229                                         !
 ! D1    D(3,1,2,4)              0.5307                                         !
 ! D2    D(3,1,2,7)           -175.8325                                         !
 ! D3    D(18,1,2,4)           179.2638                                         !
 ! D4    D(18,1,2,7)             2.9006                                         !
 ! D5    D(2,1,3,6)              0.8055                                         !
 ! D6    D(2,1,3,11)          -177.6665                                         !
 ! D7    D(18,1,3,6)          -177.8469                                         !
 ! D8    D(18,1,3,11)            3.6811                                         !
 ! D9    D(2,1,18,16)         -165.5168                                         !
 ! D10   D(2,1,18,29)          108.3279                                         !
 ! D11   D(2,1,18,37)          -62.7286                                         !
 ! D12   D(3,1,18,16)           13.1974                                         !
 ! D13   D(3,1,18,29)          -72.9578                                         !
 ! D14   D(3,1,18,37)          115.9857                                         !
 ! D15   D(1,2,4,5)             -1.4082                                         !
 ! D16   D(1,2,4,8)            179.4438                                         !
 ! D17   D(7,2,4,5)            174.5668                                         !
 ! D18   D(7,2,4,8)             -4.5812                                         !
 ! D19   D(1,2,7,12)           -36.5406                                         !
 ! D20   D(1,2,7,13)          -162.9781                                         !
 ! D21   D(1,2,7,14)            77.009                                          !
 ! D22   D(4,2,7,12)           147.241                                          !
 ! D23   D(4,2,7,13)            20.8034                                         !
 ! D24   D(4,2,7,14)           -99.2094                                         !
 ! D25   D(1,3,6,5)             -1.2212                                         !
 ! D26   D(1,3,6,10)           179.2951                                         !
 ! D27   D(11,3,6,5)           177.135                                          !
 ! D28   D(11,3,6,10)           -2.3487                                         !
 ! D29   D(1,3,11,15)           91.315                                          !
 ! D30   D(1,3,11,16)          -22.995                                          !
 ! D31   D(1,3,11,17)         -150.9561                                         !
 ! D32   D(6,3,11,15)          -87.106                                          !
 ! D33   D(6,3,11,16)          158.584                                          !
 ! D34   D(6,3,11,17)           30.623                                          !
 ! D35   D(2,4,5,6)              0.9554                                         !
 ! D36   D(2,4,5,9)           -179.2622                                         !
 ! D37   D(8,4,5,6)           -179.9085                                         !
 ! D38   D(8,4,5,9)             -0.1261                                         !
 ! D39   D(4,5,6,3)              0.3199                                         !
 ! D40   D(4,5,6,10)           179.7968                                         !
 ! D41   D(9,5,6,3)           -179.4628                                         !
 ! D42   D(9,5,6,10)             0.0142                                         !
 ! D43   D(2,7,12,19)          -70.7121                                         !
 ! D44   D(2,7,12,21)          164.998                                          !
 ! D45   D(13,7,12,19)          55.3198                                         !
 ! D46   D(13,7,12,21)         -68.9702                                         !
 ! D47   D(14,7,12,19)         174.8989                                         !
 ! D48   D(14,7,12,21)          50.609                                          !
 ! D49   D(3,11,16,18)          28.8315                                         !
 ! D50   D(3,11,16,20)         154.0351                                         !
 ! D51   D(3,11,16,22)         -91.1223                                         !
 ! D52   D(15,11,16,18)        -87.3917                                         !
 ! D53   D(15,11,16,20)         37.8119                                         !
 ! D54   D(15,11,16,22)        152.6545                                         !
 ! D55   D(17,11,16,18)        155.6582                                         !
 ! D56   D(17,11,16,20)        -79.1381                                         !
 ! D57   D(17,11,16,22)         35.7045                                         !
 ! D58   D(7,12,19,30)          59.5618                                         !
 ! D59   D(7,12,19,31)         -63.909                                          !
 ! D60   D(7,12,19,32)         171.9317                                         !
 ! D61   D(21,12,19,30)       -179.907                                          !
 ! D62   D(21,12,19,31)         56.6222                                         !
 ! D63   D(21,12,19,32)        -67.5371                                         !
 ! D64   D(7,12,21,33)         -63.8817                                         !
 ! D65   D(7,12,21,34)         174.4962                                         !
 ! D66   D(7,12,21,35)          50.9204                                         !
 ! D67   D(19,12,21,33)        172.9878                                         !
 ! D68   D(19,12,21,34)         51.3657                                         !
 ! D69   D(19,12,21,35)        -72.2101                                         !
 ! D70   D(11,16,18,1)         -20.1105                                         !
 ! D71   D(11,16,18,29)         68.8555                                         !
 ! D72   D(11,16,18,36)        156.7928                                         !
 ! D73   D(11,16,18,37)       -102.3787                                         !
 ! D74   D(20,16,18,1)        -130.8141                                         !
 ! D75   D(20,16,18,29)        -41.8482                                         !
 ! D76   D(20,16,18,36)         46.0891                                         !
 ! D77   D(20,16,18,37)        146.9177                                         !
 ! D78   D(22,16,18,1)          90.6808                                         !
 ! D79   D(22,16,18,29)        179.6468                                         !
 ! D80   D(22,16,18,36)        -92.4159                                         !
 ! D81   D(22,16,18,37)          8.4126                                         !
 ! D82   D(11,16,20,23)        -78.6913                                         !
 ! D83   D(11,16,20,24)        163.5473                                         !
 ! D84   D(11,16,20,25)         40.8401                                         !
 ! D85   D(18,16,20,23)         30.986                                          !
 ! D86   D(18,16,20,24)        -86.7754                                         !
 ! D87   D(18,16,20,25)        150.5174                                         !
 ! D88   D(22,16,20,23)        171.4583                                         !
 ! D89   D(22,16,20,24)         53.6969                                         !
 ! D90   D(22,16,20,25)        -69.0103                                         !
 ! D91   D(11,16,22,26)         53.2304                                         !
 ! D92   D(11,16,22,27)        -67.8182                                         !
 ! D93   D(11,16,22,28)        168.1764                                         !
 ! D94   D(18,16,22,26)        -55.317                                          !
 ! D95   D(18,16,22,27)       -176.3657                                         !
 ! D96   D(18,16,22,28)         59.629                                          !
 ! D97   D(20,16,22,26)        161.8642                                         !
 ! D98   D(20,16,22,27)         40.8155                                         !
 ! D99   D(20,16,22,28)        -83.1898                                         !
 ! D100  D(1,18,37,38)        -162.7535                                         !
 ! D101  D(16,18,37,38)        -81.8541                                         !
 ! D102  D(36,18,37,38)         14.696                                          !
 ! D103  D(12,19,31,42)       -179.3428                                         !
 ! D104  D(12,19,31,43)         62.0124                                         !
 ! D105  D(12,19,31,44)        -60.4784                                         !
 ! D106  D(30,19,31,42)         59.2329                                         !
 ! D107  D(30,19,31,43)        -59.4119                                         !
 ! D108  D(30,19,31,44)        178.0973                                         !
 ! D109  D(32,19,31,42)        -57.2293                                         !
 ! D110  D(32,19,31,43)       -175.8741                                         !
 ! D111  D(32,19,31,44)         61.6351                                         !
 ! D112  D(16,20,23,45)        177.0773                                         !
 ! D113  D(16,20,23,46)         57.8622                                         !
 ! D114  D(16,20,23,47)        -62.7531                                         !
 ! D115  D(24,20,23,45)        -64.3779                                         !
 ! D116  D(24,20,23,46)        176.407                                          !
 ! D117  D(24,20,23,47)         55.7916                                         !
 ! D118  D(25,20,23,45)         54.4986                                         !
 ! D119  D(25,20,23,46)        -64.7165                                         !
 ! D120  D(25,20,23,47)        174.6682                                         !
 ! D121  D(16,20,24,48)        171.045                                          !
 ! D122  D(16,20,24,49)         52.348                                          !
 ! D123  D(16,20,24,50)        -70.2093                                         !
 ! D124  D(23,20,24,48)         53.2781                                         !
 ! D125  D(23,20,24,49)        -65.4189                                         !
 ! D126  D(23,20,24,50)        172.0238                                         !
 ! D127  D(25,20,24,48)        -64.4316                                         !
 ! D128  D(25,20,24,49)        176.8713                                         !
 ! D129  D(25,20,24,50)         54.3141                                         !
 ! D130  D(16,20,25,51)        179.0253                                         !
 ! D131  D(16,20,25,52)         59.7343                                         !
 ! D132  D(16,20,25,53)        -63.1351                                         !
 ! D133  D(23,20,25,51)        -61.3124                                         !
 ! D134  D(23,20,25,52)        179.3966                                         !
 ! D135  D(23,20,25,53)         56.5272                                         !
 ! D136  D(24,20,25,51)         56.5329                                         !
 ! D137  D(24,20,25,52)        -62.758                                          !
 ! D138  D(24,20,25,53)        174.3726                                         !
 ! D139  D(12,21,34,39)         53.5199                                         !
 ! D140  D(12,21,34,40)        -68.6157                                         !
 ! D141  D(12,21,34,41)        172.3439                                         !
 ! D142  D(33,21,34,39)        -64.2812                                         !
 ! D143  D(33,21,34,40)        173.5832                                         !
 ! D144  D(33,21,34,41)         54.5428                                         !
 ! D145  D(35,21,34,39)        176.8436                                         !
 ! D146  D(35,21,34,40)         54.7079                                         !
 ! D147  D(35,21,34,41)        -64.3325                                         !
 ! D148  D(16,22,26,60)        174.1457                                         !
 ! D149  D(16,22,26,61)         55.5598                                         !
 ! D150  D(16,22,26,62)        -67.9938                                         !
 ! D151  D(27,22,26,60)        -60.8052                                         !
 ! D152  D(27,22,26,61)       -179.3911                                         !
 ! D153  D(27,22,26,62)         57.0553                                         !
 ! D154  D(28,22,26,60)         59.0483                                         !
 ! D155  D(28,22,26,61)        -59.5377                                         !
 ! D156  D(28,22,26,62)        176.9088                                         !
 ! D157  D(16,22,27,54)        -68.0734                                         !
 ! D158  D(16,22,27,55)        173.2476                                         !
 ! D159  D(16,22,27,56)         55.0412                                         !
 ! D160  D(26,22,27,54)        173.1145                                         !
 ! D161  D(26,22,27,55)         54.4355                                         !
 ! D162  D(26,22,27,56)        -63.7709                                         !
 ! D163  D(28,22,27,54)         54.768                                          !
 ! D164  D(28,22,27,55)        -63.9109                                         !
 ! D165  D(28,22,27,56)        177.8826                                         !
 ! D166  D(16,22,28,57)         67.7478                                         !
 ! D167  D(16,22,28,58)        -53.9269                                         !
 ! D168  D(16,22,28,59)       -172.442                                          !
 ! D169  D(26,22,28,57)       -178.9021                                         !
 ! D170  D(26,22,28,58)         59.4232                                         !
 ! D171  D(26,22,28,59)        -59.0919                                         !
 ! D172  D(27,22,28,57)        -59.5173                                         !
 ! D173  D(27,22,28,58)        178.808                                          !
 ! D174  D(27,22,28,59)         60.2929                                         !
 --------------------------------------------------------------------------------
 Stoichiometry    C20H37N2O2PRu
 Framework group  C1[X(C20H37N2O2PRu)]
 Deg. of freedom   183
 Full point group                 C1      NOp   1
 Largest Abelian subgroup         C1      NOp   1
 Largest concise Abelian subgroup C1      NOp   1
                         Standard orientation:                         
 ---------------------------------------------------------------------
 Center     Atomic      Atomic             Coordinates (Angstroms)
 Number     Number       Type             X           Y           Z
 ---------------------------------------------------------------------
      1          7           0       -0.804556    1.444952   -0.188290
      2          6           0       -2.034682    1.864359    0.148907
      3          6           0        0.122326    2.303839   -0.645140
      4          6           0       -2.395872    3.202295    0.026468
      5          6           0       -1.444317    4.111328   -0.427076
      6          6           0       -0.171082    3.661499   -0.763716
      7          6           0       -2.909160    0.800310    0.729464
      8          1           0       -3.402643    3.522292    0.296864
      9          1           0       -1.695052    5.169559   -0.521849
     10          1           0        0.592231    4.351438   -1.124689
     11          6           0        1.437439    1.706908   -1.038430
     12          7           0       -2.682035   -0.509431    0.083591
     13          1           0       -3.971366    1.095956    0.709245
     14          1           0       -2.570485    0.661409    1.771889
     15          1           0        1.387513    1.456636   -2.111684
     16         15           0        1.720974    0.066986   -0.179049
     17          1           0        2.261885    2.422780   -0.905041
     18         44           0       -0.411995   -0.613190    0.080950
     19          6           0       -3.202031   -0.527225   -1.302705
     20          6           0        2.898857   -0.813174   -1.387671
     21          6           0       -3.304075   -1.530958    0.956513
     22          6           0        2.639558    0.543271    1.416419
     23          6           0        2.069095   -1.361447   -2.551742
     24          6           0        3.568115   -1.993370   -0.679017
     25          6           0        3.967408    0.120124   -1.965822
     26          6           0        1.766163    1.613614    2.084065
     27          6           0        4.054252    1.085175    1.229533
     28          6           0        2.659743   -0.682291    2.334069
     29          1           0       -0.434168   -0.782031   -1.520416
     30          1           0       -2.667782    0.265669   -1.845309
     31          6           0       -4.705879   -0.358561   -1.465139
     32          1           0       -2.866857   -1.469827   -1.753820
     33          1           0       -2.727958   -1.473265    1.892243
     34          6           0       -3.290033   -2.935903    0.395389
     35          1           0       -4.345707   -1.230502    1.184154
     36          6           0        0.020495   -2.379400    0.205286
     37          8           0       -0.764099   -0.176880    2.173094
     38          1           0       -0.410803   -0.883737    2.723577
     39          1           0       -2.276148   -3.243044    0.107117
     40          1           0       -3.948527   -3.053744   -0.478369
     41          1           0       -3.645587   -3.631904    1.169537
     42          1           0       -4.954471   -0.402483   -2.536210
     43          1           0       -5.069073    0.609600   -1.088795
     44          1           0       -5.276484   -1.154037   -0.963041
     45          1           0        2.755512   -1.825859   -3.279749
     46          1           0        1.505066   -0.573401   -3.072893
     47          1           0        1.342791   -2.111738   -2.217692
     48          1           0        4.120181   -2.590362   -1.424020
     49          1           0        2.830979   -2.656363   -0.203392
     50          1           0        4.291848   -1.668646    0.081376
     51          1           0        4.617760   -0.463309   -2.638907
     52          1           0        4.608460    0.572065   -1.200326
     53          1           0        3.527946    0.928804   -2.568546
     54          1           0        4.758867    0.323820    0.865966
     55          1           0        4.429096    1.435497    2.206223
     56          1           0        4.087395    1.946725    0.544442
     57          1           0        3.280525   -1.500002    1.945073
     58          1           0        1.638600   -1.057545    2.484080
     59          1           0        3.066543   -0.388929    3.316310
     60          1           0        2.201819    1.849611    3.070209
     61          1           0        0.739774    1.229465    2.235457
     62          1           0        1.743967    2.553093    1.509404
     63          8           0        0.353569   -3.496764    0.251968
 ---------------------------------------------------------------------
 Rotational constants (GHZ):           0.2513823           0.1650191           0.1313984
 General basis read from cards:  (5D, 7F)
 ======================================================================================================
                                       Pseudopotential Parameters
 ======================================================================================================
  Center     Atomic      Valence      Angular      Power
  Number     Number     Electrons     Momentum     of R      Exponent        Coefficient   SO-Coeffient
 ======================================================================================================
    1          7
                                   No pseudopotential on this center.
    2          6
                                   No pseudopotential on this center.
    3          6
                                   No pseudopotential on this center.
    4          6
                                   No pseudopotential on this center.
    5          6
                                   No pseudopotential on this center.
    6          6
                                   No pseudopotential on this center.
    7          6
                                   No pseudopotential on this center.
    8          1
                                   No pseudopotential on this center.
    9          1
                                   No pseudopotential on this center.
   10          1
                                   No pseudopotential on this center.
   11          6
                                   No pseudopotential on this center.
   12          7
                                   No pseudopotential on this center.
   13          1
                                   No pseudopotential on this center.
   14          1
                                   No pseudopotential on this center.
   15          1
                                   No pseudopotential on this center.
   16         15
                                   No pseudopotential on this center.
   17          1
                                   No pseudopotential on this center.
   18         44           16
                                      G and up 
                                                     2        1.0000000        0.00000000    0.00000000
                                      S - G
                                                     2       11.1052690      209.82297100    0.00000000
                                                     2        5.4147450       30.65472600    0.00000000
                                      P - G
                                                     2        9.7712710      146.33618200    0.00000000
                                                     2        5.0739910       24.12787700    0.00000000
                                      D - G
                                                     2        7.6714230       67.51589700    0.00000000
                                                     2        4.1365650        9.87010400    0.00000000
                                      F - G
                                                     2       11.3600000      -28.34061600    0.00000000
                                                     2        5.6800000       -4.94462900    0.00000000
   19          6
                                   No pseudopotential on this center.
   20          6
                                   No pseudopotential on this center.
   21          6
                                   No pseudopotential on this center.
   22          6
                                   No pseudopotential on this center.
   23          6
                                   No pseudopotential on this center.
   24          6
                                   No pseudopotential on this center.
   25          6
                                   No pseudopotential on this center.
   26          6
                                   No pseudopotential on this center.
   27          6
                                   No pseudopotential on this center.
   28          6
                                   No pseudopotential on this center.
   29          1
                                   No pseudopotential on this center.
   30          1
                                   No pseudopotential on this center.
   31          6
                                   No pseudopotential on this center.
   32          1
                                   No pseudopotential on this center.
   33          1
                                   No pseudopotential on this center.
   34          6
                                   No pseudopotential on this center.
   35          1
                                   No pseudopotential on this center.
   36          6
                                   No pseudopotential on this center.
   37          8
                                   No pseudopotential on this center.
   38          1
                                   No pseudopotential on this center.
   39          1
                                   No pseudopotential on this center.
   40          1
                                   No pseudopotential on this center.
   41          1
                                   No pseudopotential on this center.
   42          1
                                   No pseudopotential on this center.
   43          1
                                   No pseudopotential on this center.
   44          1
                                   No pseudopotential on this center.
   45          1
                                   No pseudopotential on this center.
   46          1
                                   No pseudopotential on this center.
   47          1
                                   No pseudopotential on this center.
   48          1
                                   No pseudopotential on this center.
   49          1
                                   No pseudopotential on this center.
   50          1
                                   No pseudopotential on this center.
   51          1
                                   No pseudopotential on this center.
   52          1
                                   No pseudopotential on this center.
   53          1
                                   No pseudopotential on this center.
   54          1
                                   No pseudopotential on this center.
   55          1
                                   No pseudopotential on this center.
   56          1
                                   No pseudopotential on this center.
   57          1
                                   No pseudopotential on this center.
   58          1
                                   No pseudopotential on this center.
   59          1
                                   No pseudopotential on this center.
   60          1
                                   No pseudopotential on this center.
   61          1
                                   No pseudopotential on this center.
   62          1
                                   No pseudopotential on this center.
   63          8
                                   No pseudopotential on this center.
 ======================================================================================================
 There are  1473 symmetry adapted cartesian basis functions of A   symmetry.
 There are  1308 symmetry adapted basis functions of A   symmetry.
  1308 basis functions,  2037 primitive gaussians,  1473 cartesian basis functions
   109 alpha electrons      109 beta electrons
       nuclear repulsion energy      3247.7452341670 Hartrees.
 NAtoms=   63 NActive=   63 NUniq=   63 SFac= 1.00D+00 NAtFMM=   60 NAOKFM=T Big=T
 Integral buffers will be    131072 words long.
 Raffenetti 2 integral format.
 Two-electron integral symmetry is turned on.
 Nuclear repulsion after empirical dispersion term =     3247.6513968956 Hartrees.
 ------------------------------------------------------------------------------
 Polarizable Continuum Model (PCM)
 =================================
 Model                : PCM.
 Atomic radii         : SMD-Coulomb.
 Polarization charges : Total charges.
 Charge compensation  : None.
 Solution method      : On-the-fly selection.
 Cavity type          : VdW (van der Waals Surface) (Alpha=1.000).
 Cavity algorithm     : GePol (No added spheres)
                        Default sphere list used, NSphG=   63.
                        Lebedev-Laikov grids with approx.  5.0 points / Ang**2.
                        Smoothing algorithm: York/Karplus (Gamma=1.0000).
                        Polarization charges: spherical gaussians, with
                                              point-specific exponents (IZeta= 3).
                        Self-potential: point-specific (ISelfS= 7).
                        Self-field    : sphere-specific E.n sum rule (ISelfD= 2).
 Solvent              : Water, Eps=  78.355300 Eps(inf)=   1.777849
 ------------------------------------------------------------------------------
 ------------------------------------------------------------------------------
 Atomic radii for non-electrostatic terms: SMD-CDS.
 ------------------------------------------------------------------------------
 Nuclear repulsion after PCM non-electrostatic terms =     3247.6691279468 Hartrees.
 One-electron integrals computed using PRISM.
   1 Symmetry operations used in ECPInt.
 ECPInt:  NShTT=  119316 NPrTT=  422118 LenC2=  102854 LenP2D=  239198.
 LDataN:  DoStor=T MaxTD1= 7 Len=  274
 Number of processors reduced to  11 by ecpmxn.
 NBasis=  1308 RedAO= T EigKep=  3.89D-05  NBF=  1308
 NBsUse=  1308 1.00D-06 EigRej= -1.00D+00 NBFU=  1308
 Defaulting to unpruned grid for atomic number  44.
 ExpMin= 1.60D-02 ExpMax= 3.12D+05 ExpMxC= 9.87D+02 IAcc=3 IRadAn=         5 AccDes= 0.00D+00
 Harris functional with IExCor= 1009 and IRadAn=       5 diagonalized for initial guess.
 HarFok:  IExCor= 1009 AccDes= 0.00D+00 IRadAn=         5 IDoV= 1 UseB2=F ITyADJ=14
 ICtDFT=  3500011 ScaDFX=  1.000000  1.000000  1.000000  1.000000
 Defaulting to unpruned grid for atomic number  44.
 FoFCou: FMM=F IPFlag=           0 FMFlag=      100000 FMFlg1=        2001
         NFxFlg=           0 DoJE=T BraDBF=F KetDBF=T FulRan=T
         wScrn=  0.000000 ICntrl=       500 IOpCl=  0 I1Cent=   200000004 NGrid=           0
         NMat0=    1 NMatS0=      1 NMatT0=    0 NMatD0=    1 NMtDS0=    0 NMtDT0=    0
 Petite list used in FoFCou.
 Requested convergence on RMS density matrix=1.00D-08 within 128 cycles.
 Requested convergence on MAX density matrix=1.00D-06.
 Requested convergence on             energy=1.00D-06.
 No special actions if energy rises.
 Defaulting to unpruned grid for atomic number  44.
 Defaulting to unpruned grid for atomic number  44.
 Defaulting to unpruned grid for atomic number  44.
 Defaulting to unpruned grid for atomic number  44.
 Defaulting to unpruned grid for atomic number  44.
 Defaulting to unpruned grid for atomic number  44.
 Defaulting to unpruned grid for atomic number  44.
 Defaulting to unpruned grid for atomic number  44.
 Defaulting to unpruned grid for atomic number  44.
 Defaulting to unpruned grid for atomic number  44.
 Defaulting to unpruned grid for atomic number  44.
 Defaulting to unpruned grid for atomic number  44.
 Defaulting to unpruned grid for atomic number  44.
 Defaulting to unpruned grid for atomic number  44.
 Defaulting to unpruned grid for atomic number  44.
 Defaulting to unpruned grid for atomic number  44.
 Inv3:  Mode=1 IEnd=    47616768.
 Iteration    1 A*A^-1 deviation from unit magnitude is 1.49D-14 for    204.
 Iteration    1 A*A^-1 deviation from orthogonality  is 4.34D-15 for   2640    481.
 Iteration    1 A^-1*A deviation from unit magnitude is 1.49D-14 for    204.
 Iteration    1 A^-1*A deviation from orthogonality  is 1.41D-14 for   3959   2445.
 EnCoef did     3 forward-backward iterations
 Error on total polarization charges =  0.07921
 SCF Done:  E(RPBE1PBE) =  -1479.81486880     A.U. after   17 cycles
            NFock= 17  Conv=0.16D-08     -V/T= 2.0493
 SMD-CDS (non-electrostatic) energy       (kcal/mol) =      11.13
 (included in total energy above)
 DoSCS=F DFT=T ScalE2(SS,OS)=  1.000000  1.000000
 Range of M.O.s used for correlation:     1  1308
 NBasis=  1308 NAE=   109 NBE=   109 NFC=     0 NFV=     0
 NROrb=   1308 NOA=   109 NOB=   109 NVA=  1199 NVB=  1199

 **** Warning!!: The largest alpha MO coefficient is  0.19791698D+02

 NEqPCM:  Using equilibrium solvation (IEInf=0, Eps=  78.3553, EpsInf=   1.7778)
          Differentiating once with respect to magnetic field using GIAOs.
          Electric field/nuclear overlap derivatives assumed to be zero.
 Defaulting to unpruned grid for atomic number  44.
   1 Symmetry operations used in ECPInt.
 ECPInt:  NShTT=  119316 NPrTT=  422118 LenC2=  119317 LenP2D=  422118.
 LDataN:  DoStor=T MaxTD1= 8 Len=  415
 Number of processors reduced to   7 by ecpmxn.
 FoFJK:  IHMeth= 1 ICntrl=    6127 DoSepK=F KAlg= 0 I1Cent=           0 FoldK=F
 IRaf=         1 NMat=       1 IRICut=       1 DoRegI=T DoRafI=F ISym2E= 0 IDoP0=0 IntGTp=1.
 Defaulting to unpruned grid for atomic number  44.
 Defaulting to unpruned grid for atomic number  44.
 Defaulting to unpruned grid for atomic number  44.
 Defaulting to unpruned grid for atomic number  44.
 Defaulting to unpruned grid for atomic number  44.
 Defaulting to unpruned grid for atomic number  44.
 Defaulting to unpruned grid for atomic number  44.
 Defaulting to unpruned grid for atomic number  44.
 Defaulting to unpruned grid for atomic number  44.
 Defaulting to unpruned grid for atomic number  44.
 Defaulting to unpruned grid for atomic number  44.
 Defaulting to unpruned grid for atomic number  44.
 Defaulting to unpruned grid for atomic number  44.
 Defaulting to unpruned grid for atomic number  44.
 Defaulting to unpruned grid for atomic number  44.
 Defaulting to unpruned grid for atomic number  44.
          There are     3 degrees of freedom in the 1st order CPHF.  IDoFFX=0 NUNeed=     3.
      3 vectors produced by pass  0 Test12= 4.36D-12 3.33D-08 XBig12= 8.60D+01 2.09D+00.
 AX will form     3 AO Fock derivatives at one time.
      3 vectors produced by pass  1 Test12= 4.36D-12 3.33D-08 XBig12= 3.54D-01 3.01D-01.
      3 vectors produced by pass  2 Test12= 4.36D-12 3.33D-08 XBig12= 7.10D-03 2.43D-02.
      3 vectors produced by pass  3 Test12= 4.36D-12 3.33D-08 XBig12= 3.85D-05 1.93D-03.
      3 vectors produced by pass  4 Test12= 4.36D-12 3.33D-08 XBig12= 4.12D-07 1.81D-04.
      3 vectors produced by pass  5 Test12= 4.36D-12 3.33D-08 XBig12= 4.15D-09 1.28D-05.
      3 vectors produced by pass  6 Test12= 4.36D-12 3.33D-08 XBig12= 3.30D-11 1.13D-06.
      3 vectors produced by pass  7 Test12= 4.36D-12 3.33D-08 XBig12= 2.94D-13 1.28D-07.
 InvSVY:  IOpt=1 It=  1 EMax= 1.78D-15
 Solved reduced A of dimension    24 with     3 vectors.
 Calculating GIAO nuclear magnetic shielding tensors.
 SCF GIAO Magnetic shielding tensor (ppm):
      1  N    Isotropic =   -37.7610   Anisotropy =   376.6467
   XX=  -127.8166   YX=    16.0577   ZX=   121.7084
   XY=     1.4672   YY=  -134.6041   ZY=    58.9704
   XZ=   144.0231   YZ=    65.8118   ZZ=   149.1378
   Eigenvalues:  -186.6560  -139.9637   213.3368
      2  C    Isotropic =    20.8443   Anisotropy =   172.8914
   XX=   -34.9993   YX=   -24.9634   ZX=    64.6114
   XY=    -6.4063   YY=   -10.9663   ZY=    31.3346
   XZ=    53.9693   YZ=    43.6740   ZZ=   108.4984
   Eigenvalues:   -70.1171    -3.4553   136.1052
      3  C    Isotropic =    19.3930   Anisotropy =   177.0965
   XX=   -55.0524   YX=    16.6048   ZX=    66.3076
   XY=     1.3086   YY=     0.0853   ZY=    18.4017
   XZ=    64.7187   YZ=     8.7384   ZZ=   113.1460
   Eigenvalues:   -77.7734    -1.5050   137.4573
      4  C    Isotropic =    63.9712   Anisotropy =   168.0212
   XX=   -12.1139   YX=    31.8348   ZX=    55.7280
   XY=    42.8918   YY=    49.0997   ZY=     7.7061
   XZ=    53.3850   YZ=    20.6306   ZZ=   154.9278
   Eigenvalues:   -40.0400    55.9683   175.9854
      5  C    Isotropic =    43.7154   Anisotropy =   205.7838
   XX=    28.0147   YX=    26.8388   ZX=    45.1329
   XY=    25.6787   YY=   -57.3514   ZY=    30.6752
   XZ=    46.3596   YZ=    32.9592   ZZ=   160.4830
   Eigenvalues:   -66.4334    16.6749   180.9046
      6  C    Isotropic =    62.9713   Anisotropy =   165.7486
   XX=    28.6852   YX=   -31.7773   ZX=    53.3900
   XY=   -41.2420   YY=    12.0348   ZY=    37.8021
   XZ=    60.9202   YZ=    31.6747   ZZ=   148.1940
   Eigenvalues:   -38.8118    54.2554   173.4704
      7  C    Isotropic =   125.5761   Anisotropy =    57.4048
   XX=   114.2864   YX=    10.7393   ZX=   -10.6984
   XY=    10.7915   YY=   161.3532   ZY=     6.0715
   XZ=   -16.4027   YZ=     5.8526   ZZ=   101.0888
   Eigenvalues:    90.9439   121.9385   163.8460
      8  H    Isotropic =    23.7407   Anisotropy =     7.3140
   XX=    23.0615   YX=     0.1120   ZX=    -0.7152
   XY=     0.6678   YY=    28.3300   ZY=    -1.4625
   XZ=    -0.7623   YZ=    -1.4357   ZZ=    19.8305
   Eigenvalues:    19.4663    23.1391    28.6167
      9  H    Isotropic =    23.2701   Anisotropy =     4.3253
   XX=    25.6488   YX=     0.0031   ZX=    -1.7093
   XY=     0.0805   YY=    23.9912   ZY=    -0.9004
   XZ=    -1.6466   YZ=    -0.6934   ZZ=    20.1702
   Eigenvalues:    19.5677    24.0888    26.1536
     10  H    Isotropic =    23.5456   Anisotropy =     8.3408
   XX=    24.3673   YX=    -3.4144   ZX=    -0.8406
   XY=    -3.2407   YY=    26.7634   ZY=    -0.8662
   XZ=    -0.7893   YZ=    -0.7573   ZZ=    19.5059
   Eigenvalues:    19.0681    22.4625    29.1061
     11  C    Isotropic =   146.4128   Anisotropy =    38.0297
   XX=   161.1077   YX=   -16.0565   ZX=    -9.8741
   XY=    -6.6455   YY=   154.0011   ZY=    -9.6990
   XZ=   -25.7871   YZ=    -8.1735   ZZ=   124.1296
   Eigenvalues:   113.0099   154.4626   171.7659
     12  N    Isotropic =   186.8035   Anisotropy =    72.9839
   XX=   182.7142   YX=    12.5287   ZX=    -3.9848
   XY=    11.6939   YY=   232.6679   ZY=     3.6566
   XZ=     8.2590   YZ=    -6.5880   ZZ=   145.0283
   Eigenvalues:   144.8527   180.0984   235.4594
     13  H    Isotropic =    27.5031   Anisotropy =     8.0657
   XX=    29.9177   YX=    -2.6382   ZX=    -0.1037
   XY=    -2.8014   YY=    29.5938   ZY=     1.6883
   XZ=    -1.3837   YZ=     2.4792   ZZ=    22.9977
   Eigenvalues:    22.3943    27.2347    32.8802
     14  H    Isotropic =    25.3448   Anisotropy =     6.7298
   XX=    27.2821   YX=    -3.5116   ZX=     1.9150
   XY=    -3.2102   YY=    23.3418   ZY=     1.2863
   XZ=     1.6121   YZ=    -1.7704   ZZ=    25.4106
   Eigenvalues:    21.2982    24.9049    29.8314
     15  H    Isotropic =    27.6299   Anisotropy =     5.4903
   XX=    24.9705   YX=    -2.4893   ZX=    -1.3188
   XY=    -2.4654   YY=    27.4711   ZY=    -0.9206
   XZ=    -3.2880   YZ=    -1.0517   ZZ=    30.4482
   Eigenvalues:    22.6553    28.9443    31.2902
     16  P    Isotropic =   198.0354   Anisotropy =   244.9271
   XX=   327.1190   YX=    60.5446   ZX=   -19.3940
   XY=   107.4424   YY=   124.3192   ZY=    21.2465
   XZ=   -48.4275   YZ=    -5.4818   ZZ=   142.6681
   Eigenvalues:    87.2101   145.5761   361.3202
     17  H    Isotropic =    27.4380   Anisotropy =     8.0825
   XX=    28.4685   YX=     2.1341   ZX=    -0.6299
   XY=     1.8007   YY=    31.3374   ZY=    -1.6621
   XZ=    -0.6704   YZ=    -2.7069   ZZ=    22.5082
   Eigenvalues:    21.9916    27.4962    32.8264
     18  Ru   Isotropic =  -381.6587   Anisotropy =   132.2164
   XX=  -319.0698   YX=   -51.4837   ZX=   -24.8907
   XY=   -31.6501   YY=  -455.9645   ZY=    33.6104
   XZ=   -24.8381   YZ=    26.2725   ZZ=  -369.9418
   Eigenvalues:  -472.6720  -378.7896  -293.5145
     19  C    Isotropic =   133.4382   Anisotropy =    52.5339
   XX=   152.7259   YX=    -4.1477   ZX=    17.1656
   XY=    -9.0009   YY=    93.3597   ZY=     1.8349
   XZ=    12.7228   YZ=     7.3074   ZZ=   154.2289
   Eigenvalues:    91.9939   139.8598   168.4608
     20  C    Isotropic =   147.3363   Anisotropy =    23.6846
   XX=   150.6813   YX=    -5.7302   ZX=    -9.0329
   XY=    -7.7372   YY=   142.1061   ZY=     5.8434
   XZ=    -8.6211   YZ=     7.6535   ZZ=   149.2214
   Eigenvalues:   137.7494   141.1334   163.1260
     21  C    Isotropic =   137.9726   Anisotropy =    52.7435
   XX=   121.0879   YX=    10.4592   ZX=   -18.9508
   XY=    12.9651   YY=   158.6225   ZY=   -13.0409
   XZ=   -17.6511   YZ=   -18.0116   ZZ=   134.2073
   Eigenvalues:   108.1965   132.5864   173.1349
     22  C    Isotropic =   143.0757   Anisotropy =    28.0311
   XX=   146.8124   YX=     2.9299   ZX=     7.4642
   XY=    -0.7059   YY=   132.0532   ZY=    10.0237
   XZ=    14.2087   YZ=     8.8673   ZZ=   150.3616
   Eigenvalues:   127.3886   140.0754   161.7632
     23  C    Isotropic =   151.5242   Anisotropy =    30.0215
   XX=   159.3996   YX=     3.4718   ZX=     3.7256
   XY=    10.1235   YY=   136.9482   ZY=    10.1814
   XZ=    10.9344   YZ=    14.6904   ZZ=   158.2248
   Eigenvalues:   130.8471   152.1870   171.5385
     24  C    Isotropic =   159.2770   Anisotropy =    31.8387
   XX=   154.1118   YX=   -11.4026   ZX=     8.2196
   XY=   -10.9840   YY=   166.2077   ZY=   -13.3706
   XZ=     3.6071   YZ=   -10.3787   ZZ=   157.5116
   Eigenvalues:   147.1543   150.1740   180.5028
     25  C    Isotropic =   161.0837   Anisotropy =    38.1325
   XX=   167.5916   YX=    17.9214   ZX=   -10.8129
   XY=    14.1871   YY=   162.4333   ZY=    -5.5634
   XZ=   -11.8148   YZ=    -8.5112   ZZ=   153.2262
   Eigenvalues:   146.4946   150.2511   186.5053
     26  C    Isotropic =   157.6268   Anisotropy =    34.2754
   XX=   159.7120   YX=   -15.5844   ZX=    -3.6907
   XY=   -18.0426   YY=   160.3301   ZY=    10.4638
   XZ=    -4.1325   YZ=     9.7160   ZZ=   152.8384
   Eigenvalues:   141.1527   151.2507   180.4771
     27  C    Isotropic =   159.8799   Anisotropy =    32.3622
   XX=   177.0882   YX=     7.3601   ZX=   -11.6127
   XY=     9.9973   YY=   149.6608   ZY=     0.3665
   XZ=    -4.3632   YZ=     2.8985   ZZ=   152.8906
   Eigenvalues:   144.9221   153.2629   181.4546
     28  C    Isotropic =   157.7995   Anisotropy =    38.3891
   XX=   146.0726   YX=     0.9618   ZX=     4.6034
   XY=     0.8201   YY=   167.3903   ZY=   -17.2516
   XZ=     2.4676   YZ=   -21.3620   ZZ=   159.9355
   Eigenvalues:   141.5625   148.4437   183.3922
     29  H    Isotropic =    41.4326   Anisotropy =    14.1170
   XX=    50.7992   YX=     0.7302   ZX=    -3.6416
   XY=    -0.5541   YY=    48.4587   ZY=    -1.2102
   XZ=     1.7234   YZ=    -1.7984   ZZ=    25.0398
   Eigenvalues:    24.9086    48.5452    50.8439
     30  H    Isotropic =    28.5954   Anisotropy =     7.2230
   XX=    32.2551   YX=     3.3181   ZX=     1.1538
   XY=     1.8927   YY=    23.5655   ZY=    -2.1362
   XZ=     1.9111   YZ=    -0.0366   ZZ=    29.9656
   Eigenvalues:    22.5529    29.8226    33.4107
     31  C    Isotropic =   182.2377   Anisotropy =    14.5689
   XX=   191.6499   YX=    -0.2518   ZX=     0.7716
   XY=    -0.3071   YY=   175.4398   ZY=     0.6937
   XZ=     3.0596   YZ=     0.2060   ZZ=   179.6233
   Eigenvalues:   175.3771   179.3857   191.9502
     32  H    Isotropic =    28.0572   Anisotropy =     4.3461
   XX=    29.4710   YX=    -1.1738   ZX=     1.0468
   XY=    -2.1210   YY=    25.3245   ZY=     1.3960
   XZ=     1.0767   YZ=     4.4898   ZZ=    29.3762
   Eigenvalues:    23.1722    30.0449    30.9546
     33  H    Isotropic =    27.4492   Anisotropy =     4.9214
   XX=    27.2069   YX=     4.2269   ZX=     1.2194
   XY=     3.3554   YY=    25.8184   ZY=    -0.7832
   XZ=     2.2045   YZ=    -1.5164   ZZ=    29.3222
   Eigenvalues:    22.1120    29.5054    30.7301
     34  C    Isotropic =   173.7514   Anisotropy =    21.1742
   XX=   172.4301   YX=     2.2135   ZX=    -5.5839
   XY=     0.1335   YY=   187.0271   ZY=     2.8166
   XZ=    -5.0302   YZ=     6.5260   ZZ=   161.7970
   Eigenvalues:   158.7963   174.5903   187.8675
     35  H    Isotropic =    28.7147   Anisotropy =     8.0678
   XX=    31.9210   YX=     0.3681   ZX=    -3.3522
   XY=     0.7457   YY=    27.6943   ZY=    -0.9077
   XZ=    -4.4740   YZ=    -0.6774   ZZ=    26.5289
   Eigenvalues:    24.4119    27.6391    34.0933
     36  C    Isotropic =   -45.5406   Anisotropy =   455.3572
   XX=  -161.6884   YX=  -115.4615   ZX=     5.3074
   XY=  -112.0525   YY=   225.9329   ZY=   -22.4358
   XZ=     6.1912   YZ=   -22.6540   ZZ=  -200.8664
   Eigenvalues:  -202.0598  -192.5929   258.0308
     37  O    Isotropic =   354.5696   Anisotropy =    95.0831
   XX=   403.5494   YX=    21.6403   ZX=     0.1681
   XY=    -5.6167   YY=   412.9781   ZY=   -50.2697
   XZ=    17.2299   YZ=    21.9428   ZZ=   247.1814
   Eigenvalues:   245.4268   400.3237   417.9584
     38  H    Isotropic =    33.2030   Anisotropy =    18.1809
   XX=    29.0212   YX=    -5.0969   ZX=     3.3270
   XY=    -6.6357   YY=    35.7327   ZY=    -8.1954
   XZ=     2.0706   YZ=    -7.1785   ZZ=    34.8551
   Eigenvalues:    25.1648    29.1206    45.3236
     39  H    Isotropic =    29.4103   Anisotropy =     9.0793
   XX=    34.9125   YX=    -0.2759   ZX=    -1.3133
   XY=    -2.3964   YY=    29.5117   ZY=     1.1188
   XZ=    -1.7347   YZ=     0.4657   ZZ=    23.8067
   Eigenvalues:    23.5379    29.2299    35.4632
     40  H    Isotropic =    29.7987   Anisotropy =     8.5671
   XX=    29.5417   YX=     2.6380   ZX=     4.3126
   XY=     2.5953   YY=    30.7579   ZY=     1.6803
   XZ=     4.3176   YZ=     1.4278   ZZ=    29.0964
   Eigenvalues:    24.9041    28.9818    35.5101
     41  H    Isotropic =    30.0576   Anisotropy =    12.1471
   XX=    27.6519   YX=     3.7418   ZX=    -2.1558
   XY=     3.4452   YY=    34.0680   ZY=    -4.6281
   XZ=    -1.9609   YZ=    -4.2748   ZZ=    28.4530
   Eigenvalues:    25.9455    26.0717    38.1557
     42  H    Isotropic =    30.7940   Anisotropy =    12.3580
   XX=    30.8683   YX=     0.1809   ZX=     5.4337
   XY=    -0.1984   YY=    26.1008   ZY=    -0.1442
   XZ=     5.4356   YZ=     0.4828   ZZ=    35.4130
   Eigenvalues:    26.0905    27.2588    39.0327
     43  H    Isotropic =    30.0828   Anisotropy =     9.1795
   XX=    32.2105   YX=    -4.5236   ZX=     1.1186
   XY=    -3.5871   YY=    32.0760   ZY=     2.2106
   XZ=     2.9453   YZ=     2.4160   ZZ=    25.9618
   Eigenvalues:    23.7704    30.2755    36.2025
     44  H    Isotropic =    30.1918   Anisotropy =     8.9817
   XX=    34.3382   YX=     4.2255   ZX=     0.3004
   XY=     2.7484   YY=    29.4085   ZY=    -3.1430
   XZ=     1.3358   YZ=    -2.4115   ZZ=    26.8285
   Eigenvalues:    24.3326    30.0632    36.1795
     45  H    Isotropic =    30.5096   Anisotropy =    10.1882
   XX=    29.1629   YX=    -0.9479   ZX=    -2.5413
   XY=    -1.1002   YY=    28.5461   ZY=     3.9411
   XZ=    -3.0469   YZ=     4.6859   ZZ=    33.8198
   Eigenvalues:    26.0294    28.1977    37.3017
     46  H    Isotropic =    29.9608   Anisotropy =     5.9045
   XX=    29.7094   YX=    -2.1856   ZX=     1.8938
   XY=    -1.8035   YY=    27.1651   ZY=     0.0246
   XZ=     1.6152   YZ=    -0.2417   ZZ=    33.0078
   Eigenvalues:    25.9854    29.9999    33.8971
     47  H    Isotropic =    29.7995   Anisotropy =     6.7569
   XX=    32.2563   YX=     2.9969   ZX=    -3.0616
   XY=     3.4723   YY=    28.9465   ZY=     2.0481
   XZ=    -1.6167   YZ=     3.4942   ZZ=    28.1957
   Eigenvalues:    23.9329    31.1615    34.3041
     48  H    Isotropic =    30.2572   Anisotropy =    10.7671
   XX=    30.6239   YX=    -4.7817   ZX=    -2.2825
   XY=    -5.1544   YY=    31.8867   ZY=     2.8726
   XZ=    -1.9008   YZ=     2.1815   ZZ=    28.2609
   Eigenvalues:    26.2366    27.0996    37.4353
     49  H    Isotropic =    29.6958   Anisotropy =     6.4062
   XX=    29.7048   YX=    -0.1352   ZX=    -2.1437
   XY=     1.0116   YY=    32.2147   ZY=    -2.8202
   XZ=    -2.6627   YZ=    -2.7818   ZZ=    27.1679
   Eigenvalues:    25.0107    30.1101    33.9666
     50  H    Isotropic =    29.5437   Anisotropy =     7.0071
   XX=    30.4686   YX=    -1.7688   ZX=     3.6711
   XY=    -3.1877   YY=    27.6855   ZY=     0.5915
   XZ=     3.4714   YZ=     1.5777   ZZ=    30.4771
   Eigenvalues:    24.6990    29.7171    34.2151
     51  H    Isotropic =    30.3670   Anisotropy =    11.2264
   XX=    32.9476   YX=    -1.0283   ZX=    -5.6404
   XY=    -0.1893   YY=    27.3106   ZY=     0.9072
   XZ=    -5.7526   YZ=     1.7242   ZZ=    30.8429
   Eigenvalues:    25.8160    27.4339    37.8513
     52  H    Isotropic =    29.3047   Anisotropy =     7.1413
   XX=    31.0364   YX=     3.8926   ZX=     0.9756
   XY=     3.9261   YY=    26.5716   ZY=     3.3568
   XZ=    -0.6851   YZ=     2.3308   ZZ=    30.3060
   Eigenvalues:    23.4418    30.4067    34.0656
     53  H    Isotropic =    29.9502   Anisotropy =     7.6516
   XX=    28.7551   YX=     0.3286   ZX=    -3.2443
   XY=    -0.9645   YY=    31.3383   ZY=    -3.7611
   XZ=    -2.5310   YZ=    -4.1922   ZZ=    29.7572
   Eigenvalues:    24.8631    29.9362    35.0512
     54  H    Isotropic =    29.5380   Anisotropy =     7.8940
   XX=    34.0839   YX=    -2.4607   ZX=    -1.4091
   XY=    -0.7591   YY=    26.7812   ZY=     2.7647
   XZ=    -0.5303   YZ=     2.9344   ZZ=    27.7490
   Eigenvalues:    24.3351    29.4783    34.8007
     55  H    Isotropic =    30.3675   Anisotropy =    10.7729
   XX=    32.3516   YX=     2.9138   ZX=     4.0121
   XY=     3.0045   YY=    27.5198   ZY=     2.9819
   XZ=     4.1735   YZ=     2.5232   ZZ=    31.2312
   Eigenvalues:    25.8849    27.6682    37.5495
     56  H    Isotropic =    29.5915   Anisotropy =     7.4126
   XX=    29.9282   YX=     4.4403   ZX=    -1.0274
   XY=     3.3167   YY=    30.2997   ZY=    -2.4693
   XZ=     0.6125   YZ=    -1.9896   ZZ=    28.5468
   Eigenvalues:    25.5101    28.7312    34.5333
     57  H    Isotropic =    29.5315   Anisotropy =     6.7968
   XX=    27.5976   YX=    -3.7452   ZX=    -0.3096
   XY=    -4.3913   YY=    31.4987   ZY=     0.5832
   XZ=     0.6129   YZ=    -0.6631   ZZ=    29.4982
   Eigenvalues:    25.0339    29.4979    34.0627
     58  H    Isotropic =    29.5948   Anisotropy =     7.4187
   XX=    33.7330   YX=     1.5893   ZX=     0.6826
   XY=     3.1169   YY=    27.1406   ZY=    -2.2920
   XZ=     0.0945   YZ=    -3.7155   ZZ=    27.9108
   Eigenvalues:    24.0630    30.1808    34.5406
     59  H    Isotropic =    30.5406   Anisotropy =    10.6150
   XX=    28.6413   YX=    -0.3999   ZX=     3.4750
   XY=    -0.2923   YY=    27.1779   ZY=    -1.7936
   XZ=     4.0116   YZ=    -1.1694   ZZ=    35.8027
   Eigenvalues:    26.7382    27.2664    37.6173
     60  H    Isotropic =    31.2093   Anisotropy =     9.9663
   XX=    28.7131   YX=     0.0324   ZX=     1.2153
   XY=     0.9429   YY=    29.7092   ZY=     4.7718
   XZ=     2.8364   YZ=     3.4621   ZZ=    35.2057
   Eigenvalues:    27.2482    28.5262    37.8535
     61  H    Isotropic =    27.8723   Anisotropy =    13.5033
   XX=    34.9963   YX=     4.9729   ZX=    -1.1945
   XY=     4.5717   YY=    24.7473   ZY=     2.5989
   XZ=     0.1819   YZ=    -0.3354   ZZ=    23.8734
   Eigenvalues:    22.0348    24.7076    36.8746
     62  H    Isotropic =    30.9830   Anisotropy =     6.3812
   XX=    28.2633   YX=    -2.4832   ZX=     1.7160
   XY=    -0.6241   YY=    34.6066   ZY=    -0.6212
   XZ=     4.6745   YZ=    -0.0049   ZZ=    30.0790
   Eigenvalues:    25.7221    31.9897    35.2371
     63  O    Isotropic =   -36.3312   Anisotropy =   579.5008
   XX=  -193.4777   YX=  -131.6459   ZX=     0.6241
   XY=  -145.4587   YY=   313.1987   ZY=   -30.9872
   XZ=     2.3425   YZ=   -26.8293   ZZ=  -228.7147
   Eigenvalues:  -235.2450  -223.7514   350.0027
 End of Minotr F.D. properties file   721 does not exist.
 End of Minotr F.D. properties file   722 does not exist.
 End of Minotr F.D. properties file   788 does not exist.

 **********************************************************************

            Population analysis using the SCF density.

 **********************************************************************

 Orbital symmetries:
       Occupied  (A) (A) (A) (A) (A) (A) (A) (A) (A) (A) (A) (A)
                 (A) (A) (A) (A) (A) (A) (A) (A) (A) (A) (A) (A)
                 (A) (A) (A) (A) (A) (A) (A) (A) (A) (A) (A) (A)
                 (A) (A) (A) (A) (A) (A) (A) (A) (A) (A) (A) (A)
                 (A) (A) (A) (A) (A) (A) (A) (A) (A) (A) (A) (A)
                 (A) (A) (A) (A) (A) (A) (A) (A) (A) (A) (A) (A)
                 (A) (A) (A) (A) (A) (A) (A) (A) (A) (A) (A) (A)
                 (A) (A) (A) (A) (A) (A) (A) (A) (A) (A) (A) (A)
                 (A) (A) (A) (A) (A) (A) (A) (A) (A) (A) (A) (A)
                 (A)
       Virtual   (A) (A) (A) (A) (A) (A) (A) (A) (A) (A) (A) (A)
                 (A) (A) (A) (A) (A) (A) (A) (A) (A) (A) (A) (A)
                 (A) (A) (A) (A) (A) (A) (A) (A) (A) (A) (A) (A)
                 (A) (A) (A) (A) (A) (A) (A) (A) (A) (A) (A) (A)
                 (A) (A) (A) (A) (A) (A) (A) (A) (A) (A) (A) (A)
                 (A) (A) (A) (A) (A) (A) (A) (A) (A) (A) (A) (A)
                 (A) (A) (A) (A) (A) (A) (A) (A) (A) (A) (A) (A)
                 (A) (A) (A) (A) (A) (A) (A) (A) (A) (A) (A) (A)
                 (A) (A) (A) (A) (A) (A) (A) (A) (A) (A) (A) (A)
                 (A) (A) (A) (A) (A) (A) (A) (A) (A) (A) (A) (A)
                 (A) (A) (A) (A) (A) (A) (A) (A) (A) (A) (A) (A)
                 (A) (A) (A) (A) (A) (A) (A) (A) (A) (A) (A) (A)
                 (A) (A) (A) (A) (A) (A) (A) (A) (A) (A) (A) (A)
                 (A) (A) (A) (A) (A) (A) (A) (A) (A) (A) (A) (A)
                 (A) (A) (A) (A) (A) (A) (A) (A) (A) (A) (A) (A)
                 (A) (A) (A) (A) (A) (A) (A) (A) (A) (A) (A) (A)
                 (A) (A) (A) (A) (A) (A) (A) (A) (A) (A) (A) (A)
                 (A) (A) (A) (A) (A) (A) (A) (A) (A) (A) (A) (A)
                 (A) (A) (A) (A) (A) (A) (A) (A) (A) (A) (A) (A)
                 (A) (A) (A) (A) (A) (A) (A) (A) (A) (A) (A) (A)
                 (A) (A) (A) (A) (A) (A) (A) (A) (A) (A) (A) (A)
                 (A) (A) (A) (A) (A) (A) (A) (A) (A) (A) (A) (A)
                 (A) (A) (A) (A) (A) (A) (A) (A) (A) (A) (A) (A)
                 (A) (A) (A) (A) (A) (A) (A) (A) (A) (A) (A) (A)
                 (A) (A) (A) (A) (A) (A) (A) (A) (A) (A) (A) (A)
                 (A) (A) (A) (A) (A) (A) (A) (A) (A) (A) (A) (A)
                 (A) (A) (A) (A) (A) (A) (A) (A) (A) (A) (A) (A)
                 (A) (A) (A) (A) (A) (A) (A) (A) (A) (A) (A) (A)
                 (A) (A) (A) (A) (A) (A) (A) (A) (A) (A) (A) (A)
                 (A) (A) (A) (A) (A) (A) (A) (A) (A) (A) (A) (A)
                 (A) (A) (A) (A) (A) (A) (A) (A) (A) (A) (A) (A)
                 (A) (A) (A) (A) (A) (A) (A) (A) (A) (A) (A) (A)
                 (A) (A) (A) (A) (A) (A) (A) (A) (A) (A) (A) (A)
                 (A) (A) (A) (A) (A) (A) (A) (A) (A) (A) (A) (A)
                 (A) (A) (A) (A) (A) (A) (A) (A) (A) (A) (A) (A)
                 (A) (A) (A) (A) (A) (A) (A) (A) (A) (A) (A) (A)
                 (A) (A) (A) (A) (A) (A) (A) (A) (A) (A) (A) (A)
                 (A) (A) (A) (A) (A) (A) (A) (A) (A) (A) (A) (A)
                 (A) (A) (A) (A) (A) (A) (A) (A) (A) (A) (A) (A)
                 (A) (A) (A) (A) (A) (A) (A) (A) (A) (A) (A) (A)
                 (A) (A) (A) (A) (A) (A) (A) (A) (A) (A) (A) (A)
                 (A) (A) (A) (A) (A) (A) (A) (A) (A) (A) (A) (A)
                 (A) (A) (A) (A) (A) (A) (A) (A) (A) (A) (A) (A)
                 (A) (A) (A) (A) (A) (A) (A) (A) (A) (A) (A) (A)
                 (A) (A) (A) (A) (A) (A) (A) (A) (A) (A) (A) (A)
                 (A) (A) (A) (A) (A) (A) (A) (A) (A) (A) (A) (A)
                 (A) (A) (A) (A) (A) (A) (A) (A) (A) (A) (A) (A)
                 (A) (A) (A) (A) (A) (A) (A) (A) (A) (A) (A) (A)
                 (A) (A) (A) (A) (A) (A) (A) (A) (A) (A) (A) (A)
                 (A) (A) (A) (A) (A) (A) (A) (A) (A) (A) (A) (A)
                 (A) (A) (A) (A) (A) (A) (A) (A) (A) (A) (A) (A)
                 (A) (A) (A) (A) (A) (A) (A) (A) (A) (A) (A) (A)
                 (A) (A) (A) (A) (A) (A) (A) (A) (A) (A) (A) (A)
                 (A) (A) (A) (A) (A) (A) (A) (A) (A) (A) (A) (A)
                 (A) (A) (A) (A) (A) (A) (A) (A) (A) (A) (A) (A)
                 (A) (A) (A) (A) (A) (A) (A) (A) (A) (A) (A) (A)
                 (A) (A) (A) (A) (A) (A) (A) (A) (A) (A) (A) (A)
                 (A) (A) (A) (A) (A) (A) (A) (A) (A) (A) (A) (A)
                 (A) (A) (A) (A) (A) (A) (A) (A) (A) (A) (A) (A)
                 (A) (A) (A) (A) (A) (A) (A) (A) (A) (A) (A) (A)
                 (A) (A) (A) (A) (A) (A) (A) (A) (A) (A) (A) (A)
[...]
 Alpha virt. eigenvalues --    1.63265   1.63488   1.63572   1.64308   1.64461
 Alpha virt. eigenvalues --    1.64611   1.65350   1.65712   1.66650   1.67795
 Alpha virt. eigenvalues --    1.68293   1.69070   1.69208   1.70076   1.70175
 Alpha virt. eigenvalues --    1.71385   1.71847   1.73062   1.73700   1.73993
 Alpha virt. eigenvalues --    1.74876   1.75864   1.76231   1.76531   1.77135
 Alpha virt. eigenvalues --    1.78136   1.78734   1.80741   1.80815   1.82172
 Alpha virt. eigenvalues --    1.82954   1.84054   1.84880   1.85581   1.87622
 Alpha virt. eigenvalues --    1.87859   1.89236   1.90088   1.90396   1.91919
 Alpha virt. eigenvalues --    1.92967   1.93421   1.94288   1.94700   1.95545
 Alpha virt. eigenvalues --    1.96285   1.97055   1.99135   2.00850   2.01642
 Alpha virt. eigenvalues --    2.02673   2.03681   2.04476   2.04868   2.07069
 Alpha virt. eigenvalues --    2.08174   2.09120   2.10499   2.11241   2.12589
 Alpha virt. eigenvalues --    2.13125   2.16930   2.19043   2.19965   2.21474
 Alpha virt. eigenvalues --    2.22163   2.23992   2.24984   2.27146   2.27835
 Alpha virt. eigenvalues --    2.30117   2.30820   2.32143   2.32459   2.33420
 Alpha virt. eigenvalues --    2.34213   2.34773   2.35636   2.36365   2.37220
 Alpha virt. eigenvalues --    2.37572   2.38300   2.38819   2.39520   2.40728
 Alpha virt. eigenvalues --    2.40885   2.42454   2.43679   2.44103   2.44521
 Alpha virt. eigenvalues --    2.45024   2.45227   2.46031   2.46182   2.47308
 Alpha virt. eigenvalues --    2.48124   2.49251   2.50381   2.50831   2.51559
 Alpha virt. eigenvalues --    2.51753   2.52129   2.52359   2.53090   2.54793
 Alpha virt. eigenvalues --    2.55084   2.55630   2.56578   2.56775   2.57288
 Alpha virt. eigenvalues --    2.57727   2.58282   2.58799   2.59408   2.60298
 Alpha virt. eigenvalues --    2.61034   2.61268   2.61866   2.62254   2.62801
 Alpha virt. eigenvalues --    2.63923   2.64576   2.64681   2.65162   2.66034
 Alpha virt. eigenvalues --    2.66420   2.67165   2.67295   2.67581   2.68116
 Alpha virt. eigenvalues --    2.68814   2.69532   2.69691   2.70084   2.70523
 Alpha virt. eigenvalues --    2.70737   2.71369   2.72098   2.72488   2.73088
 Alpha virt. eigenvalues --    2.73480   2.73851   2.74530   2.74868   2.75282
 Alpha virt. eigenvalues --    2.75474   2.76279   2.77493   2.77649   2.78386
 Alpha virt. eigenvalues --    2.78676   2.78960   2.79356   2.79495   2.80042
 Alpha virt. eigenvalues --    2.80281   2.80923   2.81214   2.81679   2.82172
 Alpha virt. eigenvalues --    2.82501   2.82819   2.82843   2.83646   2.83732
 Alpha virt. eigenvalues --    2.84152   2.84598   2.85367   2.85536   2.85939
 Alpha virt. eigenvalues --    2.86584   2.87593   2.87937   2.88698   2.88837
 Alpha virt. eigenvalues --    2.89180   2.89695   2.90337   2.90747   2.90953
 Alpha virt. eigenvalues --    2.91614   2.92079   2.92588   2.92728   2.93359
 Alpha virt. eigenvalues --    2.93787   2.94068   2.94644   2.95043   2.95394
 Alpha virt. eigenvalues --    2.96131   2.96451   2.97687   2.97968   2.98603
 Alpha virt. eigenvalues --    2.98773   2.99429   2.99906   3.00119   3.00655
 Alpha virt. eigenvalues --    3.01147   3.01488   3.01941   3.02118   3.02390
 Alpha virt. eigenvalues --    3.02975   3.03236   3.03621   3.04028   3.04382
 Alpha virt. eigenvalues --    3.04533   3.04810   3.05329   3.05675   3.06373
 Alpha virt. eigenvalues --    3.06643   3.07165   3.07231   3.07391   3.07762
 Alpha virt. eigenvalues --    3.08148   3.08815   3.08915   3.09250   3.09542
 Alpha virt. eigenvalues --    3.10162   3.10413   3.10667   3.10754   3.11223
 Alpha virt. eigenvalues --    3.11798   3.11972   3.12195   3.12848   3.12930
 Alpha virt. eigenvalues --    3.13242   3.13372   3.13538   3.14017   3.14487
 Alpha virt. eigenvalues --    3.14841   3.14959   3.15021   3.15778   3.16104
 Alpha virt. eigenvalues --    3.16857   3.17126   3.17913   3.18130   3.18516
 Alpha virt. eigenvalues --    3.18853   3.19426   3.19508   3.20049   3.20419
 Alpha virt. eigenvalues --    3.20611   3.20817   3.21145   3.21526   3.21983
 Alpha virt. eigenvalues --    3.22045   3.23111   3.23519   3.23580   3.23799
 Alpha virt. eigenvalues --    3.24640   3.24705   3.25311   3.25886   3.26453
 Alpha virt. eigenvalues --    3.26836   3.27122   3.27268   3.27904   3.28506
 Alpha virt. eigenvalues --    3.29043   3.29540   3.30205   3.31069   3.31241
 Alpha virt. eigenvalues --    3.31674   3.31996   3.32421   3.32468   3.33051
 Alpha virt. eigenvalues --    3.33231   3.33579   3.34007   3.34137   3.34700
 Alpha virt. eigenvalues --    3.34941   3.35457   3.35622   3.36099   3.36824
 Alpha virt. eigenvalues --    3.37075   3.37542   3.37779   3.38466   3.38922
 Alpha virt. eigenvalues --    3.39268   3.39792   3.40054   3.40480   3.40568
 Alpha virt. eigenvalues --    3.41027   3.41414   3.41890   3.42868   3.43165
 Alpha virt. eigenvalues --    3.43269   3.44175   3.44415   3.44729   3.45072
 Alpha virt. eigenvalues --    3.45412   3.45483   3.46008   3.46231   3.46414
 Alpha virt. eigenvalues --    3.46754   3.47367   3.47599   3.48313   3.48483
 Alpha virt. eigenvalues --    3.48581   3.49276   3.49702   3.49973   3.50912
 Alpha virt. eigenvalues --    3.50981   3.51617   3.51964   3.52471   3.52728
 Alpha virt. eigenvalues --    3.53073   3.53379   3.53854   3.54214   3.54554
 Alpha virt. eigenvalues --    3.54966   3.55354   3.56456   3.56645   3.56866
 Alpha virt. eigenvalues --    3.57594   3.58105   3.58592   3.59172   3.59351
 Alpha virt. eigenvalues --    3.59505   3.59644   3.60051   3.61211   3.61464
 Alpha virt. eigenvalues --    3.61788   3.62060   3.62551   3.63305   3.63392
 Alpha virt. eigenvalues --    3.63613   3.64217   3.64409   3.65242   3.66402
 Alpha virt. eigenvalues --    3.66862   3.67550   3.68419   3.69242   3.69478
 Alpha virt. eigenvalues --    3.69877   3.70160   3.70909   3.71323   3.71766
 Alpha virt. eigenvalues --    3.72426   3.73113   3.73238   3.73687   3.74134
 Alpha virt. eigenvalues --    3.74421   3.74889   3.75577   3.76189   3.76316
 Alpha virt. eigenvalues --    3.76873   3.77338   3.77919   3.78269   3.78699
 Alpha virt. eigenvalues --    3.79469   3.79904   3.80209   3.80434   3.80654
 Alpha virt. eigenvalues --    3.81040   3.81761   3.82546   3.83461   3.83693
 Alpha virt. eigenvalues --    3.84263   3.84385   3.85124   3.86226   3.86653
 Alpha virt. eigenvalues --    3.87332   3.87995   3.88046   3.88560   3.89025
 Alpha virt. eigenvalues --    3.89200   3.89454   3.90101   3.90833   3.91455
 Alpha virt. eigenvalues --    3.92031   3.92872   3.93154   3.93677   3.94357
 Alpha virt. eigenvalues --    3.94586   3.95317   3.95877   3.96052   3.96464
 Alpha virt. eigenvalues --    3.97099   3.97495   3.98055   3.98406   3.99050
 Alpha virt. eigenvalues --    3.99532   3.99684   4.00683   4.01123   4.01830
 Alpha virt. eigenvalues --    4.01874   4.02250   4.02886   4.02945   4.03679
 Alpha virt. eigenvalues --    4.03895   4.05292   4.05584   4.06163   4.07133
 Alpha virt. eigenvalues --    4.07286   4.07606   4.08457   4.08641   4.08897
 Alpha virt. eigenvalues --    4.09248   4.09367   4.09985   4.10892   4.11079
 Alpha virt. eigenvalues --    4.11544   4.11639   4.12398   4.12542   4.12762
 Alpha virt. eigenvalues --    4.13248   4.13448   4.13847   4.14544   4.14635
 Alpha virt. eigenvalues --    4.15005   4.15747   4.15922   4.16512   4.16747
 Alpha virt. eigenvalues --    4.17386   4.17462   4.17989   4.18497   4.18777
 Alpha virt. eigenvalues --    4.19372   4.19903   4.20663   4.20896   4.20979
 Alpha virt. eigenvalues --    4.21576   4.21741   4.22116   4.22402   4.22936
 Alpha virt. eigenvalues --    4.24035   4.24287   4.24689   4.24913   4.25650
 Alpha virt. eigenvalues --    4.26080   4.26233   4.26417   4.27064   4.27666
 Alpha virt. eigenvalues --    4.27938   4.28073   4.28605   4.28898   4.29190
 Alpha virt. eigenvalues --    4.29931   4.30001   4.30244   4.30713   4.31083
 Alpha virt. eigenvalues --    4.31388   4.31778   4.31926   4.32395   4.32639
 Alpha virt. eigenvalues --    4.32921   4.33711   4.33995   4.34738   4.34941
 Alpha virt. eigenvalues --    4.35335   4.35712   4.35812   4.37035   4.37343
 Alpha virt. eigenvalues --    4.37524   4.38134   4.38805   4.39404   4.40308
 Alpha virt. eigenvalues --    4.40737   4.41553   4.41808   4.41944   4.42312
 Alpha virt. eigenvalues --    4.42638   4.43625   4.44110   4.44777   4.45008
 Alpha virt. eigenvalues --    4.45823   4.46423   4.46486   4.47066   4.48095
 Alpha virt. eigenvalues --    4.48389   4.48989   4.50146   4.50398   4.50855
 Alpha virt. eigenvalues --    4.51645   4.52250   4.54010   4.54430   4.55146
 Alpha virt. eigenvalues --    4.55569   4.55848   4.57253   4.57629   4.58072
 Alpha virt. eigenvalues --    4.58422   4.59054   4.60445   4.60867   4.61703
 Alpha virt. eigenvalues --    4.62213   4.64514   4.65410   4.65832   4.68185
 Alpha virt. eigenvalues --    4.68939   4.71222   4.71360   4.72025   4.72528
 Alpha virt. eigenvalues --    4.73460   4.74400   4.74549   4.75274   4.76181
 Alpha virt. eigenvalues --    4.77701   4.78308   4.78698   4.79555   4.80222
 Alpha virt. eigenvalues --    4.81445   4.81969   4.82522   4.83322   4.83767
 Alpha virt. eigenvalues --    4.83922   4.83981   4.84724   4.84915   4.85607
 Alpha virt. eigenvalues --    4.86343   4.86471   4.87489   4.87870   4.88324
 Alpha virt. eigenvalues --    4.89100   4.89567   4.89779   4.90009   4.90538
 Alpha virt. eigenvalues --    4.90910   4.91759   4.92104   4.92699   4.93333
 Alpha virt. eigenvalues --    4.93892   4.94439   4.95471   4.95856   4.96346
 Alpha virt. eigenvalues --    4.96683   4.97271   4.97512   4.98496   4.99840
 Alpha virt. eigenvalues --    5.00835   5.01717   5.03045   5.03525   5.04934
 Alpha virt. eigenvalues --    5.06228   5.06520   5.07290   5.08731   5.09343
 Alpha virt. eigenvalues --    5.09693   5.09867   5.10313   5.11533   5.12069
 Alpha virt. eigenvalues --    5.14000   5.14245   5.14412   5.15039   5.16278
 Alpha virt. eigenvalues --    5.17191   5.17570   5.18802   5.19037   5.20130
 Alpha virt. eigenvalues --    5.20402   5.20784   5.21106   5.21888   5.21991
 Alpha virt. eigenvalues --    5.22642   5.23580   5.24332   5.25008   5.25405
 Alpha virt. eigenvalues --    5.25902   5.26532   5.27442   5.28300   5.28439
 Alpha virt. eigenvalues --    5.29264   5.29488   5.30316   5.30872   5.31388
 Alpha virt. eigenvalues --    5.32547   5.33786   5.34120   5.34745   5.35330
 Alpha virt. eigenvalues --    5.35581   5.36224   5.36530   5.37116   5.37899
 Alpha virt. eigenvalues --    5.38134   5.38591   5.39015   5.39348   5.39550
 Alpha virt. eigenvalues --    5.40444   5.40927   5.41427   5.41867   5.42414
 Alpha virt. eigenvalues --    5.43227   5.43278   5.43737   5.44062   5.44716
 Alpha virt. eigenvalues --    5.46287   5.46847   5.47795   5.48515   5.48978
 Alpha virt. eigenvalues --    5.50038   5.50516   5.50920   5.51019   5.51426
 Alpha virt. eigenvalues --    5.51917   5.53132   5.53345   5.54882   5.55854
 Alpha virt. eigenvalues --    5.56129   5.56543   5.57191   5.58119   5.58541
 Alpha virt. eigenvalues --    5.58918   5.59741   5.60828   5.61442   5.62476
 Alpha virt. eigenvalues --    5.65718   5.66875   5.68526   5.70670   5.73064
 Alpha virt. eigenvalues --    5.77689   5.79059   5.86860   5.88040   5.90164
 Alpha virt. eigenvalues --    5.92923   5.96985   5.99037   5.99195   6.00787
 Alpha virt. eigenvalues --    6.01481   6.01621   6.02933   6.03191   6.03908
 Alpha virt. eigenvalues --    6.04236   6.04909   6.05808   6.06533   6.06895
 Alpha virt. eigenvalues --    6.08138   6.08648   6.10339   6.10883   6.11985
 Alpha virt. eigenvalues --    6.12674   6.14838   6.16799   6.18292   6.20306
 Alpha virt. eigenvalues --    6.22390   6.26736   6.29232   6.31939   6.33472
 Alpha virt. eigenvalues --    6.34110   6.37220   6.45380   6.54621   6.59752
 Alpha virt. eigenvalues --    6.65436   6.74597   6.78264   6.79451   6.84760
 Alpha virt. eigenvalues --    6.85938   6.87307   6.90751   7.06869   7.25340
 Alpha virt. eigenvalues --    7.38100   8.19541   9.71439   9.85224   9.99038
 Alpha virt. eigenvalues --   10.75613  12.26248  12.33437  12.40845  12.87320
 Alpha virt. eigenvalues --   12.94988  12.97481  13.24274  13.29423  13.51925
 Alpha virt. eigenvalues --   13.57015  13.62463  13.64446  13.78292  13.80235
 Alpha virt. eigenvalues --   13.82359  13.85945  13.95129  14.01533  15.08388
 Alpha virt. eigenvalues --   35.44927  35.70888  35.80453  46.36556
          Condensed to atoms (all electrons):
 Mulliken charges:
               1
     1  N   -0.115696
     2  C    0.090889
     3  C    0.033051
     4  C   -0.169651
     5  C   -0.127674
     6  C   -0.140753
     7  C   -0.108687
     8  H    0.160219
     9  H    0.162813
    10  H    0.162060
    11  C   -0.226445
    12  N   -0.193791
    13  H    0.124974
    14  H    0.184605
    15  H    0.163194
    16  P    0.105846
    17  H    0.149030
    18  Ru   0.538988
    19  C   -0.119707
    20  C   -0.003916
    21  C   -0.124698
    22  C    0.008989
    23  C   -0.348414
    24  C   -0.349274
    25  C   -0.334935
    26  C   -0.378067
    27  C   -0.332482
    28  C   -0.348136
    29  H   -0.215070
    30  H    0.141473
    31  C   -0.322239
    32  H    0.132593
    33  H    0.127677
    34  C   -0.342631
    35  H    0.115190
    36  C   -0.141134
    37  O   -0.722580
    38  H    0.254171
    39  H    0.128776
    40  H    0.112222
    41  H    0.118904
    42  H    0.116962
    43  H    0.110709
    44  H    0.111314
    45  H    0.110917
    46  H    0.124300
    47  H    0.142214
    48  H    0.107298
    49  H    0.124276
    50  H    0.121384
    51  H    0.108336
    52  H    0.123956
    53  H    0.114112
    54  H    0.116850
    55  H    0.106179
    56  H    0.114800
    57  H    0.119578
    58  H    0.122725
    59  H    0.107276
    60  H    0.103800
    61  H    0.137997
    62  H    0.109566
    63  O   -0.304238
 Sum of Mulliken charges =  -0.00000
 Mulliken charges with hydrogens summed into heavy atoms:
               1
     1  N   -0.115696
     2  C    0.090889
     3  C    0.033051
     4  C   -0.009432
     5  C    0.035140
     6  C    0.021307
     7  C    0.200893
    11  C    0.085780
    12  N   -0.193791
    16  P    0.105846
    18  Ru   0.323918
    19  C    0.154359
    20  C   -0.003916
    21  C    0.118169
    22  C    0.008989
    23  C    0.029017
    24  C    0.003684
    25  C    0.011469
    26  C   -0.026703
    27  C    0.005348
    28  C    0.001445
    31  C    0.016746
    34  C    0.017271
    36  C   -0.141134
    37  O   -0.468409
    63  O   -0.304238
 Electronic spatial extent (au):  <R**2>=           9483.5143
 Charge=             -0.0000 electrons
 Dipole moment (field-independent basis, Debye):
    X=             -0.2906    Y=              8.1960    Z=             -4.3558  Tot=              9.2861
 Quadrupole moment (field-independent basis, Debye-Ang):
   XX=           -148.9024   YY=           -175.7842   ZZ=           -191.0844
   XY=             -0.3595   XZ=             -0.4783   YZ=             -6.5001
 Traceless Quadrupole moment (field-independent basis, Debye-Ang):
   XX=             23.0212   YY=             -3.8605   ZZ=            -19.1607
   XY=             -0.3595   XZ=             -0.4783   YZ=             -6.5001
 Octapole moment (field-independent basis, Debye-Ang**2):
  XXX=            -74.8687  YYY=            115.7481  ZZZ=             -8.8271  XYY=            -43.5102
  XXY=              0.4835  XXZ=             -3.0896  XZZ=              8.1086  YZZ=            -22.4054
  YYZ=            -14.2580  XYZ=              0.0294
 Hexadecapole moment (field-independent basis, Debye-Ang**3):
 XXXX=          -6717.0443 YYYY=          -3662.2817 ZZZZ=          -2036.6572 XXXY=            -37.9231
 XXXZ=            -32.8828 YYYX=            -54.8200 YYYZ=            -90.4859 ZZZX=             20.0527
 ZZZY=            -35.5178 XXYY=          -1692.5126 XXZZ=          -1477.8673 YYZZ=           -991.5205
 XXYZ=             20.8884 YYXZ=            -40.7820 ZZXY=             26.3312
 N-N= 3.247669127947D+03 E-N=-9.933267020978D+03  KE= 1.410282242712D+03
 1\1\GINC-NODE154\SP\RPBE1PBE\GenECP\C20H37N2O2P1Ru1\JS1212\11-Nov-2018
 \0\\# nmr genecp pbe1pbe EmpiricalDispersion=GD3BJ scrf=(SMD,solvent=w
 ater) geom=allcheck\\Title Card Required\\0,1\N,0,-0.8253772184,1.4586
 272729,-0.0629366187\C,0,-2.0554969275,1.8809763579,0.2705927223\C,0,0
 .0860198548,2.3042194136,-0.5726795816\C,0,-2.4328431665,3.2077594978,
 0.089544359\C,0,-1.4972810845,4.1038496793,-0.4196172242\C,0,-0.223718
 9045,3.6515839061,-0.7517284961\C,0,-2.910640904,0.8369100674,0.912940
 8589\H,0,-3.4394279561,3.5299258551,0.3580527186\H,0,-1.760772491,5.15
 37171894,-0.5612236478\H,0,0.5272307397,4.3313232411,-1.1554521543\C,0
 ,1.4023197812,1.7027542578,-0.9549404003\N,0,-2.6776899648,-0.49975757
 64,0.3270971601\H,0,-3.9761846622,1.1203156544,0.8931015313\H,0,-2.556
 8716512,0.751406375,1.9561001221\H,0,1.3411038321,1.4010477632,-2.0142
 930868\P,0,1.7149529342,0.1087170926,-0.022429775\H,0,2.220573248,2.43
 26166903,-0.8669717156\Ru,0,-0.4068815817,-0.580173982,0.2985748001\C,
 0,-3.2155382156,-0.5890367444,-1.049594441\C,0,2.8864764447,-0.8159608
 013,-1.2036827688\C,0,-3.2770750216,-1.4848037333,1.2560022773\C,0,2.6
 490589712,0.6700221628,1.5359493428\C,0,2.0476055744,-1.4276674128,-2.
 3289740463\C,0,3.5777872478,-1.9540473169,-0.4488273269\C,0,3.93712497
 12,0.0996206387,-1.8400431658\C,0,1.7728305082,1.7619700186,2.16370599
 79\C,0,4.0551872501,1.2169090943,1.3042993346\C,0,2.6946179027,-0.5100
 763808,2.5105161072\H,0,-0.448140068,-0.8254653671,-1.2924942792\H,0,-
 2.6971164708,0.1825107627,-1.6365154619\C,0,-4.7231325382,-0.443791025
 4,-1.1994369747\H,0,-2.876017355,-1.5485968967,-1.4598561894\H,0,-2.68
 94407441,-1.3765982364,2.1800184271\C,0,-3.2550294788,-2.9147082306,0.
 7622257916\H,0,-4.3188616285,-1.1845531936,1.4832096845\C,0,0.04645639
 28,-2.3338966547,0.5009280476\O,0,-0.7363499864,-0.048159839,2.3721765
 197\H,0,-0.368191014,-0.7242695704,2.9508224888\H,0,-2.2417069611,-3.2
 248136263,0.4751560181\H,0,-3.9235629756,-3.0808798021,-0.0959140809\H
 ,0,-3.5928133265,-3.5765904511,1.5733702988\H,0,-4.9852094257,-0.54133
 26498,-2.2637304513\H,0,-5.0919254216,0.5374412662,-0.8646897678\H,0,-
 5.2784062935,-1.2202243708,-0.6523554968\H,0,2.729477457,-1.9192106063
 ,-3.0433111206\H,0,1.4682410871,-0.6712322807,-2.8793258938\H,0,1.3339
 659078,-2.1685908532,-1.9497709687\H,0,4.1265530026,-2.5802050591,-1.1
 720066661\H,0,2.8542152016,-2.601131811,0.0677700318\H,0,4.3078098044,
 -1.5859789408,0.2853567201\H,0,4.5849548726,-0.5085504472,-2.493372029
 9\H,0,4.5831549645,0.5941473557,-1.1056926407\H,0,3.4810180523,0.87405
 25165,-2.4745412158\H,0,4.763261339,0.4463569857,0.9678384807\H,0,4.43
 89195984,1.6172796116,2.2580338289\H,0,4.06996356,2.0450774483,0.57860
 22659\H,0,3.3191535863,-1.3389933243,2.152477752\H,0,1.6796811008,-0.8
 882247977,2.6920634637\H,0,3.1109956555,-0.1660042667,3.4720723233\H,0
 ,2.2187375411,2.0492286798,3.1314970641\H,0,0.7527643368,1.3749497832,
 2.3471262321\H,0,1.7328679185,2.6726754741,1.5453474752\O,0,0.39229279
 77,-3.4442758629,0.5961974408\\Version=ES64L-G16RevA.03\State=1-A\HF=-
 1479.8148688\RMSD=1.570e-09\Dipole=-0.1719197,3.1377537,-1.8634892\Qua
 drupole=17.1058997,-3.3605328,-13.7453669,-0.1460795,-0.7065212,-5.354
 6979\PG=C01 [X(C20H37N2O2P1Ru1)]\\@


 THERE IS SOMETHING FASCINATING ABOUT SCIENCE.
 ONE GETS SUCH WHOLESALE CONJECTURE OUT OF SUCH TRIFLING INVESTMENTS.

                                                       -- MARK TWAIN
 Job cpu time:       0 days 22 hours 44 minutes 34.1 seconds.
 Elapsed time:       0 days  1 hours 30 minutes 21.0 seconds.
 File lengths (MBytes):  RWF=   1229 Int=      0 D2E=      0 Chk=    154 Scr=      1
 Normal termination of Gaussian 16 at Sun Nov 11 15:47:03 2018.
