63
	Energy: -928597.8425390
N         -0.80456        1.44495       -0.18829
C         -2.03468        1.86436        0.14891
C          0.12233        2.30384       -0.64514
C         -2.39587        3.20229        0.02647
C         -1.44432        4.11133       -0.42708
C         -0.17108        3.66150       -0.76372
C         -2.90916        0.80031        0.72946
H         -3.40264        3.52229        0.29686
H         -1.69505        5.16956       -0.52185
H          0.59223        4.35144       -1.12469
C          1.43744        1.70691       -1.03843
N         -2.68203       -0.50943        0.08359
H         -3.97137        1.09596        0.70925
H         -2.57049        0.66141        1.77189
H          1.38751        1.45664       -2.11168
P          1.72097        0.06699       -0.17905
H          2.26188        2.42278       -0.90504
Ru        -0.41200       -0.61319        0.08095
C         -3.20203       -0.52723       -1.30271
C          2.89886       -0.81317       -1.38767
C         -3.30408       -1.53096        0.95651
C          2.63956        0.54327        1.41642
C          2.06909       -1.36145       -2.55174
C          3.56812       -1.99337       -0.67902
C          3.96741        0.12012       -1.96582
C          1.76616        1.61361        2.08406
C          4.05425        1.08518        1.22953
C          2.65974       -0.68229        2.33407
H         -0.43417       -0.78203       -1.52042
H         -2.66778        0.26567       -1.84531
C         -4.70588       -0.35856       -1.46514
H         -2.86686       -1.46983       -1.75382
H         -2.72796       -1.47327        1.89224
C         -3.29003       -2.93590        0.39539
H         -4.34571       -1.23050        1.18415
C          0.02049       -2.37940        0.20529
O         -0.76410       -0.17688        2.17309
H         -0.41080       -0.88374        2.72358
H         -2.27615       -3.24304        0.10712
H         -3.94853       -3.05374       -0.47837
H         -3.64559       -3.63190        1.16954
H         -4.95447       -0.40248       -2.53621
H         -5.06907        0.60960       -1.08879
H         -5.27648       -1.15404       -0.96304
H          2.75551       -1.82586       -3.27975
H          1.50507       -0.57340       -3.07289
H          1.34279       -2.11174       -2.21769
H          4.12018       -2.59036       -1.42402
H          2.83098       -2.65636       -0.20339
H          4.29185       -1.66865        0.08138
H          4.61776       -0.46331       -2.63891
H          4.60846        0.57207       -1.20033
H          3.52795        0.92880       -2.56855
H          4.75887        0.32382        0.86597
H          4.42910        1.43550        2.20622
H          4.08739        1.94673        0.54444
H          3.28052       -1.50000        1.94507
H          1.63860       -1.05754        2.48408
H          3.06654       -0.38893        3.31631
H          2.20182        1.84961        3.07021
H          0.73977        1.22947        2.23546
H          1.74397        2.55309        1.50940
O          0.35357       -3.49676        0.25197
