 Entering Gaussian System, Link 0=g16
 Initial command:
 /cluster/chemistry/gaussian/g16/l1.exe "/scratch/js1212.730156/scratch/Gau-31151.inp" -scrdir="/scratch/js1212.730156/scratch/"
 Entering Link 1 = /cluster/chemistry/gaussian/g16/l1.exe PID=     31152.
  
 Copyright (c) 1988,1990,1992,1993,1995,1998,2003,2009,2016,
            Gaussian, Inc.  All Rights Reserved.
  
 This is part of the Gaussian(R) 16 program.  It is based on
 the Gaussian(R) 09 system (copyright 2009, Gaussian, Inc.),
 the Gaussian(R) 03 system (copyright 2003, Gaussian, Inc.),
 the Gaussian(R) 98 system (copyright 1998, Gaussian, Inc.),
 the Gaussian(R) 94 system (copyright 1995, Gaussian, Inc.),
 the Gaussian 92(TM) system (copyright 1992, Gaussian, Inc.),
 the Gaussian 90(TM) system (copyright 1990, Gaussian, Inc.),
 the Gaussian 88(TM) system (copyright 1988, Gaussian, Inc.),
 the Gaussian 86(TM) system (copyright 1986, Carnegie Mellon
 University), and the Gaussian 82(TM) system (copyright 1983,
 Carnegie Mellon University). Gaussian is a federally registered
 trademark of Gaussian, Inc.
  
 This software contains proprietary and confidential information,
 including trade secrets, belonging to Gaussian, Inc.
  
 This software is provided under written license and may be
 used, copied, transmitted, or stored only in accord with that
 written license.
  
 The following legend is applicable only to US Government
 contracts under FAR:
  
                    RESTRICTED RIGHTS LEGEND
  
 Use, reproduction and disclosure by the US Government is
 subject to restrictions as set forth in subparagraphs (a)
 and (c) of the Commercial Computer Software - Restricted
 Rights clause in FAR 52.227-19.
  
 Gaussian, Inc.
 340 Quinnipiac St., Bldg. 40, Wallingford CT 06492
  
  
 ---------------------------------------------------------------
 Warning -- This program may not be used in any manner that
 competes with the business of Gaussian, Inc. or will provide
 assistance to any competitor of Gaussian, Inc.  The licensee
 of this program is prohibited from giving any competitor of
 Gaussian, Inc. access to this program.  By using this program,
 the user acknowledges that Gaussian, Inc. is engaged in the
 business of creating and licensing software in the field of
 computational chemistry and represents and warrants to the
 licensee that it is not a competitor of Gaussian, Inc. and that
 it will not use this program in any manner prohibited above.
 ---------------------------------------------------------------
  

 Cite this work as:
 Gaussian 16, Revision A.03,
 M. J. Frisch, G. W. Trucks, H. B. Schlegel, G. E. Scuseria, 
 M. A. Robb, J. R. Cheeseman, G. Scalmani, V. Barone, 
 G. A. Petersson, H. Nakatsuji, X. Li, M. Caricato, A. V. Marenich, 
 J. Bloino, B. G. Janesko, R. Gomperts, B. Mennucci, H. P. Hratchian, 
 J. V. Ortiz, A. F. Izmaylov, J. L. Sonnenberg, D. Williams-Young, 
 F. Ding, F. Lipparini, F. Egidi, J. Goings, B. Peng, A. Petrone, 
 T. Henderson, D. Ranasinghe, V. G. Zakrzewski, J. Gao, N. Rega, 
 G. Zheng, W. Liang, M. Hada, M. Ehara, K. Toyota, R. Fukuda, 
 J. Hasegawa, M. Ishida, T. Nakajima, Y. Honda, O. Kitao, H. Nakai, 
 T. Vreven, K. Throssell, J. A. Montgomery, Jr., J. E. Peralta, 
 F. Ogliaro, M. J. Bearpark, J. J. Heyd, E. N. Brothers, K. N. Kudin, 
 V. N. Staroverov, T. A. Keith, R. Kobayashi, J. Normand, 
 K. Raghavachari, A. P. Rendell, J. C. Burant, S. S. Iyengar, 
 J. Tomasi, M. Cossi, J. M. Millam, M. Klene, C. Adamo, R. Cammi, 
 J. W. Ochterski, R. L. Martin, K. Morokuma, O. Farkas, 
 J. B. Foresman, and D. J. Fox, Gaussian, Inc., Wallingford CT, 2016.
 
 ******************************************
 Gaussian 16:  ES64L-G16RevA.03 25-Dec-2016
                14-Apr-2020 
 ******************************************
 %rwf=/scratch/js1212.730156/2-Trans-B-GP-TD-SMD.rwf
 %nosave
 %nprocshared=20
 Will use up to   20 processors via shared memory.
 %mem=3000MB
 %chk=/scratch/js1212.730156/2-Full-Trans-B-GPOF.chk
 ----------------------------------------------------------------------
 # genecp pbe1pbe EmpiricalDispersion=GD3BJ scrf=(SMD,solvent=water) td
 =nstates=25 geom=allcheck
 ----------------------------------------------------------------------
 1/29=7,38=1,172=1/1;
 2/12=2,40=1/2;
 3/5=7,11=9,14=-4,16=1,17=8,25=1,30=1,70=32201,72=1,74=-13,124=41/1,2,3,8;
 4//1;
 5/5=2,38=5,53=1/2;
 8/6=1,10=1,108=25/1;
 9/41=25,42=1,70=2/14;
 6/7=2,8=2,9=2,10=2/1;
 99/5=1,9=1/99;
 Structure from the checkpoint file:  "/scratch/js1212.730156/2-Full-Trans-B-GPOF.chk"
 -------------------
 Title Card Required
 -------------------
 Charge =  0 Multiplicity = 1
 Redundant internal coordinates found in file.  (old form).
 N,0,-0.8253772184,1.4586272729,-0.0629366187
 C,0,-2.0554969275,1.8809763579,0.2705927223
 C,0,0.0860198548,2.3042194136,-0.5726795816
 C,0,-2.4328431665,3.2077594978,0.089544359
 C,0,-1.4972810845,4.1038496793,-0.4196172242
 C,0,-0.2237189045,3.6515839061,-0.7517284961
 C,0,-2.910640904,0.8369100674,0.9129408589
 H,0,-3.4394279561,3.5299258551,0.3580527186
 H,0,-1.760772491,5.1537171894,-0.5612236478
 H,0,0.5272307397,4.3313232411,-1.1554521543
 C,0,1.4023197812,1.7027542578,-0.9549404003
 N,0,-2.6776899648,-0.4997575764,0.3270971601
 H,0,-3.9761846622,1.1203156544,0.8931015313
 H,0,-2.5568716512,0.751406375,1.9561001221
 H,0,1.3411038321,1.4010477632,-2.0142930868
 P,0,1.7149529342,0.1087170926,-0.022429775
 H,0,2.220573248,2.4326166903,-0.8669717156
 Ru,0,-0.4068815817,-0.580173982,0.2985748001
 C,0,-3.2155382156,-0.5890367444,-1.049594441
 C,0,2.8864764447,-0.8159608013,-1.2036827688
 C,0,-3.2770750216,-1.4848037333,1.2560022773
 C,0,2.6490589712,0.6700221628,1.5359493428
 C,0,2.0476055744,-1.4276674128,-2.3289740463
 C,0,3.5777872478,-1.9540473169,-0.4488273269
 C,0,3.9371249712,0.0996206387,-1.8400431658
 C,0,1.7728305082,1.7619700186,2.1637059979
 C,0,4.0551872501,1.2169090943,1.3042993346
 C,0,2.6946179027,-0.5100763808,2.5105161072
 H,0,-0.448140068,-0.8254653671,-1.2924942792
 H,0,-2.6971164708,0.1825107627,-1.6365154619
 C,0,-4.7231325382,-0.4437910254,-1.1994369747
 H,0,-2.876017355,-1.5485968967,-1.4598561894
 H,0,-2.6894407441,-1.3765982364,2.1800184271
 C,0,-3.2550294788,-2.9147082306,0.7622257916
 H,0,-4.3188616285,-1.1845531936,1.4832096845
 C,0,0.0464563928,-2.3338966547,0.5009280476
 O,0,-0.7363499864,-0.048159839,2.3721765197
 H,0,-0.368191014,-0.7242695704,2.9508224888
 H,0,-2.2417069611,-3.2248136263,0.4751560181
 H,0,-3.9235629756,-3.0808798021,-0.0959140809
 H,0,-3.5928133265,-3.5765904511,1.5733702988
 H,0,-4.9852094257,-0.5413326498,-2.2637304513
 H,0,-5.0919254216,0.5374412662,-0.8646897678
 H,0,-5.2784062935,-1.2202243708,-0.6523554968
 H,0,2.729477457,-1.9192106063,-3.0433111206
 H,0,1.4682410871,-0.6712322807,-2.8793258938
 H,0,1.3339659078,-2.1685908532,-1.9497709687
 H,0,4.1265530026,-2.5802050591,-1.1720066661
 H,0,2.8542152016,-2.601131811,0.0677700318
 H,0,4.3078098044,-1.5859789408,0.2853567201
 H,0,4.5849548726,-0.5085504472,-2.4933720299
 H,0,4.5831549645,0.5941473557,-1.1056926407
 H,0,3.4810180523,0.8740525165,-2.4745412158
 H,0,4.763261339,0.4463569857,0.9678384807
 H,0,4.4389195984,1.6172796116,2.2580338289
 H,0,4.06996356,2.0450774483,0.5786022659
 H,0,3.3191535863,-1.3389933243,2.152477752
 H,0,1.6796811008,-0.8882247977,2.6920634637
 H,0,3.1109956555,-0.1660042667,3.4720723233
 H,0,2.2187375411,2.0492286798,3.1314970641
 H,0,0.7527643368,1.3749497832,2.3471262321
 H,0,1.7328679185,2.6726754741,1.5453474752
 O,0,0.3922927977,-3.4442758629,0.5961974408
 Recover connectivity data from disk.
                           ----------------------------
                           !    Current Parameters    !
                           ! (Angstroms and Degrees)  !
 --------------------------                            --------------------------
 ! Name  Definition              Value                                          !
 --------------------------------------------------------------------------------
 ! R1    R(1,2)                  1.3427                                         !
 ! R2    R(1,3)                  1.3437                                         !
 ! R3    R(1,18)                 2.1125                                         !
 ! R4    R(2,4)                  1.3912                                         !
 ! R5    R(2,7)                  1.4946                                         !
 ! R6    R(3,6)                  1.3941                                         !
 ! R7    R(3,11)                 1.4968                                         !
 ! R8    R(4,5)                  1.3919                                         !
 ! R9    R(4,8)                  1.0905                                         !
 ! R10   R(5,6)                  1.3917                                         !
 ! R11   R(5,9)                  1.0917                                         !
 ! R12   R(6,10)                 1.0904                                         !
 ! R13   R(7,12)                 1.4779                                         !
 ! R14   R(7,13)                 1.1028                                         !
 ! R15   R(7,14)                 1.1048                                         !
 ! R16   R(11,15)                1.1032                                         !
 ! R17   R(11,16)                1.873                                          !
 ! R18   R(11,17)                1.1                                            !
 ! R19   R(12,19)                1.4807                                         !
 ! R20   R(12,21)                1.4807                                         !
 ! R21   R(16,18)                2.2538                                         !
 ! R22   R(16,20)                1.9034                                         !
 ! R23   R(16,22)                1.9016                                         !
 ! R24   R(18,29)                1.6104                                         !
 ! R25   R(18,36)                1.8226                                         !
 ! R26   R(18,37)                2.166                                          !
 ! R27   R(19,30)                1.0993                                         !
 ! R28   R(19,31)                1.522                                          !
 ! R29   R(19,32)                1.0974                                         !
 ! R30   R(20,23)                1.5311                                         !
 ! R31   R(20,24)                1.5307                                         !
 ! R32   R(20,25)                1.532                                          !
 ! R33   R(21,33)                1.1004                                         !
 ! R34   R(21,34)                1.5129                                         !
 ! R35   R(21,35)                1.1077                                         !
 ! R36   R(22,26)                1.5343                                         !
 ! R37   R(22,27)                1.5264                                         !
 ! R38   R(22,28)                1.5312                                         !
 ! R39   R(23,45)                1.1031                                         !
 ! R40   R(23,46)                1.1003                                         !
 ! R41   R(23,47)                1.0964                                         !
 ! R42   R(24,48)                1.1028                                         !
 ! R43   R(24,49)                1.0996                                         !
 ! R44   R(24,50)                1.0988                                         !
 ! R45   R(25,51)                1.1029                                         !
 ! R46   R(25,52)                1.096                                          !
 ! R47   R(25,53)                1.1002                                         !
 ! R48   R(26,60)                1.1036                                         !
 ! R49   R(26,61)                1.1063                                         !
 ! R50   R(26,62)                1.1015                                         !
 ! R51   R(27,54)                1.0992                                         !
 ! R52   R(27,55)                1.1032                                         !
 ! R53   R(27,56)                1.1012                                         !
 ! R54   R(28,57)                1.0979                                         !
 ! R55   R(28,58)                1.0982                                         !
 ! R56   R(28,59)                1.1029                                         !
 ! R57   R(31,42)                1.1004                                         !
 ! R58   R(31,43)                1.1004                                         !
 ! R59   R(31,44)                1.1002                                         !
 ! R60   R(34,39)                1.0979                                         !
 ! R61   R(34,40)                1.1004                                         !
 ! R62   R(34,41)                1.1001                                         !
 ! R63   R(36,63)                1.1669                                         !
 ! R64   R(37,38)                0.9631                                         !
 ! A1    A(2,1,3)              121.1778                                         !
 ! A2    A(2,1,18)             116.2681                                         !
 ! A3    A(3,1,18)             122.5413                                         !
 ! A4    A(1,2,4)              121.0743                                         !
 ! A5    A(1,2,7)              114.2802                                         !
 ! A6    A(4,2,7)              124.5361                                         !
 ! A7    A(1,3,6)              120.4143                                         !
 ! A8    A(1,3,11)             116.1345                                         !
 ! A9    A(6,3,11)             123.4324                                         !
 ! A10   A(2,4,5)              118.6363                                         !
 ! A11   A(2,4,8)              120.0054                                         !
 ! A12   A(5,4,8)              121.3527                                         !
 ! A13   A(4,5,6)              119.5484                                         !
 ! A14   A(4,5,9)              120.2881                                         !
 ! A15   A(6,5,9)              120.1631                                         !
 ! A16   A(3,6,5)              119.1283                                         !
 ! A17   A(3,6,10)             119.8047                                         !
 ! A18   A(5,6,10)             121.0649                                         !
 ! A19   A(2,7,12)             111.7924                                         !
 ! A20   A(2,7,13)             111.4429                                         !
 ! A21   A(2,7,14)             106.0597                                         !
 ! A22   A(12,7,13)            112.1857                                         !
 ! A23   A(12,7,14)            104.7032                                         !
 ! A24   A(13,7,14)            110.2593                                         !
 ! A25   A(3,11,15)            107.8382                                         !
 ! A26   A(3,11,16)            111.1989                                         !
 ! A27   A(3,11,17)            111.5376                                         !
 ! A28   A(15,11,16)           104.7495                                         !
 ! A29   A(15,11,17)           107.4298                                         !
 ! A30   A(16,11,17)           113.6223                                         !
 ! A31   A(7,12,19)            111.4589                                         !
 ! A32   A(7,12,21)            106.8102                                         !
 ! A33   A(19,12,21)           113.336                                          !
 ! A34   A(11,16,18)           100.0144                                         !
 ! A35   A(11,16,20)           101.9584                                         !
 ! A36   A(11,16,22)           103.8147                                         !
 ! A37   A(18,16,20)           121.2886                                         !
 ! A38   A(18,16,22)           115.8456                                         !
 ! A39   A(20,16,22)           110.4655                                         !
 ! A40   A(1,18,16)             82.365                                          !
 ! A41   A(1,18,29)             88.4443                                         !
 ! A42   A(1,18,37)             84.0674                                         !
 ! A43   A(16,18,29)            85.9837                                         !
 ! A44   A(16,18,36)            94.3443                                         !
 ! A45   A(16,18,37)           101.799                                          !
 ! A46   A(29,18,36)            88.2524                                         !
 ! A47   A(36,18,37)            99.6648                                         !
 ! A48   A(12,19,30)           106.4257                                         !
 ! A49   A(12,19,31)           116.4608                                         !
 ! A50   A(12,19,32)           106.7334                                         !
 ! A51   A(30,19,31)           110.3397                                         !
 ! A52   A(30,19,32)           105.5559                                         !
 ! A53   A(31,19,32)           110.6768                                         !
 ! A54   A(16,20,23)           108.2398                                         !
 ! A55   A(16,20,24)           109.4592                                         !
 ! A56   A(16,20,25)           112.9266                                         !
 ! A57   A(23,20,24)           108.2309                                         !
 ! A58   A(23,20,25)           108.0127                                         !
 ! A59   A(24,20,25)           109.844                                          !
 ! A60   A(12,21,33)           104.194                                          !
 ! A61   A(12,21,34)           114.7153                                         !
 ! A62   A(12,21,35)           109.2115                                         !
 ! A63   A(33,21,34)           111.0524                                         !
 ! A64   A(33,21,35)           107.6586                                         !
 ! A65   A(34,21,35)           109.6833                                         !
 ! A66   A(16,22,26)           105.3569                                         !
 ! A67   A(16,22,27)           115.7149                                         !
 ! A68   A(16,22,28)           107.9822                                         !
 ! A69   A(26,22,27)           109.4623                                         !
 ! A70   A(26,22,28)           107.7629                                         !
 ! A71   A(27,22,28)           110.2012                                         !
 ! A72   A(20,23,45)           108.3788                                         !
 ! A73   A(20,23,46)           112.4226                                         !
 ! A74   A(20,23,47)           111.8653                                         !
 ! A75   A(45,23,46)           107.9332                                         !
 ! A76   A(45,23,47)           108.9772                                         !
 ! A77   A(46,23,47)           107.1483                                         !
 ! A78   A(20,24,48)           108.875                                          !
 ! A79   A(20,24,49)           111.8409                                         !
 ! A80   A(20,24,50)           112.3646                                         !
 ! A81   A(48,24,49)           107.5411                                         !
 ! A82   A(48,24,50)           107.3219                                         !
 ! A83   A(49,24,50)           108.6862                                         !
 ! A84   A(20,25,51)           108.6224                                         !
 ! A85   A(20,25,52)           113.3025                                         !
 ! A86   A(20,25,53)           112.0815                                         !
 ! A87   A(51,25,52)           107.4269                                         !
 ! A88   A(51,25,53)           106.8605                                         !
 ! A89   A(52,25,53)           108.2512                                         !
 ! A90   A(22,26,60)           108.2573                                         !
 ! A91   A(22,26,61)           110.2075                                         !
 ! A92   A(22,26,62)           112.2985                                         !
 ! A93   A(60,26,61)           108.5544                                         !
 ! A94   A(60,26,62)           106.962                                          !
 ! A95   A(61,26,62)           110.4166                                         !
 ! A96   A(22,27,54)           112.873                                          !
 ! A97   A(22,27,55)           108.6169                                         !
 ! A98   A(22,27,56)           112.4458                                         !
 ! A99   A(54,27,55)           107.1543                                         !
 ! A100  A(54,27,56)           108.4707                                         !
 ! A101  A(55,27,56)           106.9835                                         !
 ! A102  A(22,28,57)           113.0329                                         !
 ! A103  A(22,28,58)           110.0661                                         !
 ! A104  A(22,28,59)           109.0088                                         !
 ! A105  A(57,28,58)           108.6423                                         !
 ! A106  A(57,28,59)           107.7649                                         !
 ! A107  A(58,28,59)           108.1922                                         !
 ! A108  A(19,31,42)           108.8247                                         !
 ! A109  A(19,31,43)           112.7758                                         !
 ! A110  A(19,31,44)           112.5584                                         !
 ! A111  A(42,31,43)           107.0641                                         !
 ! A112  A(42,31,44)           107.3479                                         !
 ! A113  A(43,31,44)           107.9914                                         !
 ! A114  A(21,34,39)           111.4531                                         !
 ! A115  A(21,34,40)           112.8537                                         !
 ! A116  A(21,34,41)           108.8767                                         !
 ! A117  A(39,34,40)           108.3103                                         !
 ! A118  A(39,34,41)           107.8337                                         !
 ! A119  A(40,34,41)           107.314                                          !
 ! A120  A(18,37,38)           110.1591                                         !
 ! A121  L(1,18,36,16,-1)      176.7092                                         !
 ! A122  L(29,18,37,1,-1)      172.5117                                         !
 ! A123  L(18,36,63,20,-1)     176.7423                                         !
 ! A124  L(1,18,36,16,-2)      183.0967                                         !
 ! A125  L(29,18,37,1,-2)      171.0565                                         !
 ! A126  L(18,36,63,20,-2)     180.2229                                         !
 ! D1    D(3,1,2,4)              0.5307                                         !
 ! D2    D(3,1,2,7)           -175.8325                                         !
 ! D3    D(18,1,2,4)           179.2638                                         !
 ! D4    D(18,1,2,7)             2.9006                                         !
 ! D5    D(2,1,3,6)              0.8055                                         !
 ! D6    D(2,1,3,11)          -177.6665                                         !
 ! D7    D(18,1,3,6)          -177.8469                                         !
 ! D8    D(18,1,3,11)            3.6811                                         !
 ! D9    D(2,1,18,16)         -165.5168                                         !
 ! D10   D(2,1,18,29)          108.3279                                         !
 ! D11   D(2,1,18,37)          -62.7286                                         !
 ! D12   D(3,1,18,16)           13.1974                                         !
 ! D13   D(3,1,18,29)          -72.9578                                         !
 ! D14   D(3,1,18,37)          115.9857                                         !
 ! D15   D(1,2,4,5)             -1.4082                                         !
 ! D16   D(1,2,4,8)            179.4438                                         !
 ! D17   D(7,2,4,5)            174.5668                                         !
 ! D18   D(7,2,4,8)             -4.5812                                         !
 ! D19   D(1,2,7,12)           -36.5406                                         !
 ! D20   D(1,2,7,13)          -162.9781                                         !
 ! D21   D(1,2,7,14)            77.009                                          !
 ! D22   D(4,2,7,12)           147.241                                          !
 ! D23   D(4,2,7,13)            20.8034                                         !
 ! D24   D(4,2,7,14)           -99.2094                                         !
 ! D25   D(1,3,6,5)             -1.2212                                         !
 ! D26   D(1,3,6,10)           179.2951                                         !
 ! D27   D(11,3,6,5)           177.135                                          !
 ! D28   D(11,3,6,10)           -2.3487                                         !
 ! D29   D(1,3,11,15)           91.315                                          !
 ! D30   D(1,3,11,16)          -22.995                                          !
 ! D31   D(1,3,11,17)         -150.9561                                         !
 ! D32   D(6,3,11,15)          -87.106                                          !
 ! D33   D(6,3,11,16)          158.584                                          !
 ! D34   D(6,3,11,17)           30.623                                          !
 ! D35   D(2,4,5,6)              0.9554                                         !
 ! D36   D(2,4,5,9)           -179.2622                                         !
 ! D37   D(8,4,5,6)           -179.9085                                         !
 ! D38   D(8,4,5,9)             -0.1261                                         !
 ! D39   D(4,5,6,3)              0.3199                                         !
 ! D40   D(4,5,6,10)           179.7968                                         !
 ! D41   D(9,5,6,3)           -179.4628                                         !
 ! D42   D(9,5,6,10)             0.0142                                         !
 ! D43   D(2,7,12,19)          -70.7121                                         !
 ! D44   D(2,7,12,21)          164.998                                          !
 ! D45   D(13,7,12,19)          55.3198                                         !
 ! D46   D(13,7,12,21)         -68.9702                                         !
 ! D47   D(14,7,12,19)         174.8989                                         !
 ! D48   D(14,7,12,21)          50.609                                          !
 ! D49   D(3,11,16,18)          28.8315                                         !
 ! D50   D(3,11,16,20)         154.0351                                         !
 ! D51   D(3,11,16,22)         -91.1223                                         !
 ! D52   D(15,11,16,18)        -87.3917                                         !
 ! D53   D(15,11,16,20)         37.8119                                         !
 ! D54   D(15,11,16,22)        152.6545                                         !
 ! D55   D(17,11,16,18)        155.6582                                         !
 ! D56   D(17,11,16,20)        -79.1381                                         !
 ! D57   D(17,11,16,22)         35.7045                                         !
 ! D58   D(7,12,19,30)          59.5618                                         !
 ! D59   D(7,12,19,31)         -63.909                                          !
 ! D60   D(7,12,19,32)         171.9317                                         !
 ! D61   D(21,12,19,30)       -179.907                                          !
 ! D62   D(21,12,19,31)         56.6222                                         !
 ! D63   D(21,12,19,32)        -67.5371                                         !
 ! D64   D(7,12,21,33)         -63.8817                                         !
 ! D65   D(7,12,21,34)         174.4962                                         !
 ! D66   D(7,12,21,35)          50.9204                                         !
 ! D67   D(19,12,21,33)        172.9878                                         !
 ! D68   D(19,12,21,34)         51.3657                                         !
 ! D69   D(19,12,21,35)        -72.2101                                         !
 ! D70   D(11,16,18,1)         -20.1105                                         !
 ! D71   D(11,16,18,29)         68.8555                                         !
 ! D72   D(11,16,18,36)        156.7928                                         !
 ! D73   D(11,16,18,37)       -102.3787                                         !
 ! D74   D(20,16,18,1)        -130.8141                                         !
 ! D75   D(20,16,18,29)        -41.8482                                         !
 ! D76   D(20,16,18,36)         46.0891                                         !
 ! D77   D(20,16,18,37)        146.9177                                         !
 ! D78   D(22,16,18,1)          90.6808                                         !
 ! D79   D(22,16,18,29)        179.6468                                         !
 ! D80   D(22,16,18,36)        -92.4159                                         !
 ! D81   D(22,16,18,37)          8.4126                                         !
 ! D82   D(11,16,20,23)        -78.6913                                         !
 ! D83   D(11,16,20,24)        163.5473                                         !
 ! D84   D(11,16,20,25)         40.8401                                         !
 ! D85   D(18,16,20,23)         30.986                                          !
 ! D86   D(18,16,20,24)        -86.7754                                         !
 ! D87   D(18,16,20,25)        150.5174                                         !
 ! D88   D(22,16,20,23)        171.4583                                         !
 ! D89   D(22,16,20,24)         53.6969                                         !
 ! D90   D(22,16,20,25)        -69.0103                                         !
 ! D91   D(11,16,22,26)         53.2304                                         !
 ! D92   D(11,16,22,27)        -67.8182                                         !
 ! D93   D(11,16,22,28)        168.1764                                         !
 ! D94   D(18,16,22,26)        -55.317                                          !
 ! D95   D(18,16,22,27)       -176.3657                                         !
 ! D96   D(18,16,22,28)         59.629                                          !
 ! D97   D(20,16,22,26)        161.8642                                         !
 ! D98   D(20,16,22,27)         40.8155                                         !
 ! D99   D(20,16,22,28)        -83.1898                                         !
 ! D100  D(1,18,37,38)        -162.7535                                         !
 ! D101  D(16,18,37,38)        -81.8541                                         !
 ! D102  D(36,18,37,38)         14.696                                          !
 ! D103  D(12,19,31,42)       -179.3428                                         !
 ! D104  D(12,19,31,43)         62.0124                                         !
 ! D105  D(12,19,31,44)        -60.4784                                         !
 ! D106  D(30,19,31,42)         59.2329                                         !
 ! D107  D(30,19,31,43)        -59.4119                                         !
 ! D108  D(30,19,31,44)        178.0973                                         !
 ! D109  D(32,19,31,42)        -57.2293                                         !
 ! D110  D(32,19,31,43)       -175.8741                                         !
 ! D111  D(32,19,31,44)         61.6351                                         !
 ! D112  D(16,20,23,45)        177.0773                                         !
 ! D113  D(16,20,23,46)         57.8622                                         !
 ! D114  D(16,20,23,47)        -62.7531                                         !
 ! D115  D(24,20,23,45)        -64.3779                                         !
 ! D116  D(24,20,23,46)        176.407                                          !
 ! D117  D(24,20,23,47)         55.7916                                         !
 ! D118  D(25,20,23,45)         54.4986                                         !
 ! D119  D(25,20,23,46)        -64.7165                                         !
 ! D120  D(25,20,23,47)        174.6682                                         !
 ! D121  D(16,20,24,48)        171.045                                          !
 ! D122  D(16,20,24,49)         52.348                                          !
 ! D123  D(16,20,24,50)        -70.2093                                         !
 ! D124  D(23,20,24,48)         53.2781                                         !
 ! D125  D(23,20,24,49)        -65.4189                                         !
 ! D126  D(23,20,24,50)        172.0238                                         !
 ! D127  D(25,20,24,48)        -64.4316                                         !
 ! D128  D(25,20,24,49)        176.8713                                         !
 ! D129  D(25,20,24,50)         54.3141                                         !
 ! D130  D(16,20,25,51)        179.0253                                         !
 ! D131  D(16,20,25,52)         59.7343                                         !
 ! D132  D(16,20,25,53)        -63.1351                                         !
 ! D133  D(23,20,25,51)        -61.3124                                         !
 ! D134  D(23,20,25,52)        179.3966                                         !
 ! D135  D(23,20,25,53)         56.5272                                         !
 ! D136  D(24,20,25,51)         56.5329                                         !
 ! D137  D(24,20,25,52)        -62.758                                          !
 ! D138  D(24,20,25,53)        174.3726                                         !
 ! D139  D(12,21,34,39)         53.5199                                         !
 ! D140  D(12,21,34,40)        -68.6157                                         !
 ! D141  D(12,21,34,41)        172.3439                                         !
 ! D142  D(33,21,34,39)        -64.2812                                         !
 ! D143  D(33,21,34,40)        173.5832                                         !
 ! D144  D(33,21,34,41)         54.5428                                         !
 ! D145  D(35,21,34,39)        176.8436                                         !
 ! D146  D(35,21,34,40)         54.7079                                         !
 ! D147  D(35,21,34,41)        -64.3325                                         !
 ! D148  D(16,22,26,60)        174.1457                                         !
 ! D149  D(16,22,26,61)         55.5598                                         !
 ! D150  D(16,22,26,62)        -67.9938                                         !
 ! D151  D(27,22,26,60)        -60.8052                                         !
 ! D152  D(27,22,26,61)       -179.3911                                         !
 ! D153  D(27,22,26,62)         57.0553                                         !
 ! D154  D(28,22,26,60)         59.0483                                         !
 ! D155  D(28,22,26,61)        -59.5377                                         !
 ! D156  D(28,22,26,62)        176.9088                                         !
 ! D157  D(16,22,27,54)        -68.0734                                         !
 ! D158  D(16,22,27,55)        173.2476                                         !
 ! D159  D(16,22,27,56)         55.0412                                         !
 ! D160  D(26,22,27,54)        173.1145                                         !
 ! D161  D(26,22,27,55)         54.4355                                         !
 ! D162  D(26,22,27,56)        -63.7709                                         !
 ! D163  D(28,22,27,54)         54.768                                          !
 ! D164  D(28,22,27,55)        -63.9109                                         !
 ! D165  D(28,22,27,56)        177.8826                                         !
 ! D166  D(16,22,28,57)         67.7478                                         !
 ! D167  D(16,22,28,58)        -53.9269                                         !
 ! D168  D(16,22,28,59)       -172.442                                          !
 ! D169  D(26,22,28,57)       -178.9021                                         !
 ! D170  D(26,22,28,58)         59.4232                                         !
 ! D171  D(26,22,28,59)        -59.0919                                         !
 ! D172  D(27,22,28,57)        -59.5173                                         !
 ! D173  D(27,22,28,58)        178.808                                          !
 ! D174  D(27,22,28,59)         60.2929                                         !
 --------------------------------------------------------------------------------
 Stoichiometry    C20H37N2O2PRu
 Framework group  C1[X(C20H37N2O2PRu)]
 Deg. of freedom   183
 Full point group                 C1      NOp   1
 Largest Abelian subgroup         C1      NOp   1
 Largest concise Abelian subgroup C1      NOp   1
                         Standard orientation:                         
 ---------------------------------------------------------------------
 Center     Atomic      Atomic             Coordinates (Angstroms)
 Number     Number       Type             X           Y           Z
 ---------------------------------------------------------------------
      1          7           0       -0.804556    1.444952   -0.188290
      2          6           0       -2.034682    1.864359    0.148907
      3          6           0        0.122326    2.303839   -0.645140
      4          6           0       -2.395872    3.202295    0.026468
      5          6           0       -1.444317    4.111328   -0.427076
      6          6           0       -0.171082    3.661499   -0.763716
      7          6           0       -2.909160    0.800310    0.729464
      8          1           0       -3.402643    3.522292    0.296864
      9          1           0       -1.695052    5.169559   -0.521849
     10          1           0        0.592231    4.351438   -1.124689
     11          6           0        1.437439    1.706908   -1.038430
     12          7           0       -2.682035   -0.509431    0.083591
     13          1           0       -3.971366    1.095956    0.709245
     14          1           0       -2.570485    0.661409    1.771889
     15          1           0        1.387513    1.456636   -2.111684
     16         15           0        1.720974    0.066986   -0.179049
     17          1           0        2.261885    2.422780   -0.905041
     18         44           0       -0.411995   -0.613190    0.080950
     19          6           0       -3.202031   -0.527225   -1.302705
     20          6           0        2.898857   -0.813174   -1.387671
     21          6           0       -3.304075   -1.530958    0.956513
     22          6           0        2.639558    0.543271    1.416419
     23          6           0        2.069095   -1.361447   -2.551742
     24          6           0        3.568115   -1.993370   -0.679017
     25          6           0        3.967408    0.120124   -1.965822
     26          6           0        1.766163    1.613614    2.084065
     27          6           0        4.054252    1.085175    1.229533
     28          6           0        2.659743   -0.682291    2.334069
     29          1           0       -0.434168   -0.782031   -1.520416
     30          1           0       -2.667782    0.265669   -1.845309
     31          6           0       -4.705879   -0.358561   -1.465139
     32          1           0       -2.866857   -1.469827   -1.753820
     33          1           0       -2.727958   -1.473265    1.892243
     34          6           0       -3.290033   -2.935903    0.395389
     35          1           0       -4.345707   -1.230502    1.184154
     36          6           0        0.020495   -2.379400    0.205286
     37          8           0       -0.764099   -0.176880    2.173094
     38          1           0       -0.410803   -0.883737    2.723577
     39          1           0       -2.276148   -3.243044    0.107117
     40          1           0       -3.948527   -3.053744   -0.478369
     41          1           0       -3.645587   -3.631904    1.169537
     42          1           0       -4.954471   -0.402483   -2.536210
     43          1           0       -5.069073    0.609600   -1.088795
     44          1           0       -5.276484   -1.154037   -0.963041
     45          1           0        2.755512   -1.825859   -3.279749
     46          1           0        1.505066   -0.573401   -3.072893
     47          1           0        1.342791   -2.111738   -2.217692
     48          1           0        4.120181   -2.590362   -1.424020
     49          1           0        2.830979   -2.656363   -0.203392
     50          1           0        4.291848   -1.668646    0.081376
     51          1           0        4.617760   -0.463309   -2.638907
     52          1           0        4.608460    0.572065   -1.200326
     53          1           0        3.527946    0.928804   -2.568546
     54          1           0        4.758867    0.323820    0.865966
     55          1           0        4.429096    1.435497    2.206223
     56          1           0        4.087395    1.946725    0.544442
     57          1           0        3.280525   -1.500002    1.945073
     58          1           0        1.638600   -1.057545    2.484080
     59          1           0        3.066543   -0.388929    3.316310
     60          1           0        2.201819    1.849611    3.070209
     61          1           0        0.739774    1.229465    2.235457
     62          1           0        1.743967    2.553093    1.509404
     63          8           0        0.353569   -3.496764    0.251968
 ---------------------------------------------------------------------
 Rotational constants (GHZ):           0.2513823           0.1650191           0.1313984
 General basis read from cards:  (5D, 7F)
 ======================================================================================================
                                       Pseudopotential Parameters
 ======================================================================================================
  Center     Atomic      Valence      Angular      Power
  Number     Number     Electrons     Momentum     of R      Exponent        Coefficient   SO-Coeffient
 ======================================================================================================
    1          7
                                   No pseudopotential on this center.
    2          6
                                   No pseudopotential on this center.
    3          6
                                   No pseudopotential on this center.
    4          6
                                   No pseudopotential on this center.
    5          6
                                   No pseudopotential on this center.
    6          6
                                   No pseudopotential on this center.
    7          6
                                   No pseudopotential on this center.
    8          1
                                   No pseudopotential on this center.
    9          1
                                   No pseudopotential on this center.
   10          1
                                   No pseudopotential on this center.
   11          6
                                   No pseudopotential on this center.
   12          7
                                   No pseudopotential on this center.
   13          1
                                   No pseudopotential on this center.
   14          1
                                   No pseudopotential on this center.
   15          1
                                   No pseudopotential on this center.
   16         15
                                   No pseudopotential on this center.
   17          1
                                   No pseudopotential on this center.
   18         44           16
                                      G and up 
                                                     2        1.0000000        0.00000000    0.00000000
                                      S - G
                                                     2       11.1052690      209.82297100    0.00000000
                                                     2        5.4147450       30.65472600    0.00000000
                                      P - G
                                                     2        9.7712710      146.33618200    0.00000000
                                                     2        5.0739910       24.12787700    0.00000000
                                      D - G
                                                     2        7.6714230       67.51589700    0.00000000
                                                     2        4.1365650        9.87010400    0.00000000
                                      F - G
                                                     2       11.3600000      -28.34061600    0.00000000
                                                     2        5.6800000       -4.94462900    0.00000000
   19          6
                                   No pseudopotential on this center.
   20          6
                                   No pseudopotential on this center.
   21          6
                                   No pseudopotential on this center.
   22          6
                                   No pseudopotential on this center.
   23          6
                                   No pseudopotential on this center.
   24          6
                                   No pseudopotential on this center.
   25          6
                                   No pseudopotential on this center.
   26          6
                                   No pseudopotential on this center.
   27          6
                                   No pseudopotential on this center.
   28          6
                                   No pseudopotential on this center.
   29          1
                                   No pseudopotential on this center.
   30          1
                                   No pseudopotential on this center.
   31          6
                                   No pseudopotential on this center.
   32          1
                                   No pseudopotential on this center.
   33          1
                                   No pseudopotential on this center.
   34          6
                                   No pseudopotential on this center.
   35          1
                                   No pseudopotential on this center.
   36          6
                                   No pseudopotential on this center.
   37          8
                                   No pseudopotential on this center.
   38          1
                                   No pseudopotential on this center.
   39          1
                                   No pseudopotential on this center.
   40          1
                                   No pseudopotential on this center.
   41          1
                                   No pseudopotential on this center.
   42          1
                                   No pseudopotential on this center.
   43          1
                                   No pseudopotential on this center.
   44          1
                                   No pseudopotential on this center.
   45          1
                                   No pseudopotential on this center.
   46          1
                                   No pseudopotential on this center.
   47          1
                                   No pseudopotential on this center.
   48          1
                                   No pseudopotential on this center.
   49          1
                                   No pseudopotential on this center.
   50          1
                                   No pseudopotential on this center.
   51          1
                                   No pseudopotential on this center.
   52          1
                                   No pseudopotential on this center.
   53          1
                                   No pseudopotential on this center.
   54          1
                                   No pseudopotential on this center.
   55          1
                                   No pseudopotential on this center.
   56          1
                                   No pseudopotential on this center.
   57          1
                                   No pseudopotential on this center.
   58          1
                                   No pseudopotential on this center.
   59          1
                                   No pseudopotential on this center.
   60          1
                                   No pseudopotential on this center.
   61          1
                                   No pseudopotential on this center.
   62          1
                                   No pseudopotential on this center.
   63          8
                                   No pseudopotential on this center.
 ======================================================================================================
 There are   603 symmetry adapted cartesian basis functions of A   symmetry.
 There are   575 symmetry adapted basis functions of A   symmetry.
   575 basis functions,  1187 primitive gaussians,   603 cartesian basis functions
   109 alpha electrons      109 beta electrons
       nuclear repulsion energy      3247.7452341670 Hartrees.
 NAtoms=   63 NActive=   63 NUniq=   63 SFac= 1.00D+00 NAtFMM=   60 NAOKFM=T Big=T
 Integral buffers will be    131072 words long.
 Regular integral format.
 Two-electron integral symmetry is turned on.
 Nuclear repulsion after empirical dispersion term =     3247.6513968956 Hartrees.
 ------------------------------------------------------------------------------
 Polarizable Continuum Model (PCM)
 =================================
 Model                : PCM.
 Atomic radii         : SMD-Coulomb.
 Polarization charges : Total charges.
 Charge compensation  : None.
 Solution method      : On-the-fly selection.
 Cavity type          : VdW (van der Waals Surface) (Alpha=1.000).
 Cavity algorithm     : GePol (No added spheres)
                        Default sphere list used, NSphG=   63.
                        Lebedev-Laikov grids with approx.  5.0 points / Ang**2.
                        Smoothing algorithm: York/Karplus (Gamma=1.0000).
                        Polarization charges: spherical gaussians, with
                                              point-specific exponents (IZeta= 3).
                        Self-potential: point-specific (ISelfS= 7).
                        Self-field    : sphere-specific E.n sum rule (ISelfD= 2).
 Solvent              : Water, Eps=  78.355300 Eps(inf)=   1.777849
 ------------------------------------------------------------------------------
 ------------------------------------------------------------------------------
 Atomic radii for non-electrostatic terms: SMD-CDS.
 ------------------------------------------------------------------------------
 Nuclear repulsion after PCM non-electrostatic terms =     3247.6691279468 Hartrees.
 One-electron integrals computed using PRISM.
   1 Symmetry operations used in ECPInt.
 ECPInt:  NShTT=   38503 NPrTT=  265225 LenC2=   35785 LenP2D=  135916.
 LDataN:  DoStor=T MaxTD1= 6 Len=  172
 Number of processors reduced to  16 by ecpmxn.
 NBasis=   575 RedAO= T EigKep=  4.38D-04  NBF=   575
 NBsUse=   575 1.00D-06 EigRej= -1.00D+00 NBFU=   575
 Defaulting to unpruned grid for atomic number  44.
 ExpMin= 1.60D-02 ExpMax= 9.48D+04 ExpMxC= 3.24D+03 IAcc=3 IRadAn=         5 AccDes= 0.00D+00
 Harris functional with IExCor= 1009 and IRadAn=       5 diagonalized for initial guess.
 HarFok:  IExCor= 1009 AccDes= 0.00D+00 IRadAn=         5 IDoV= 1 UseB2=F ITyADJ=14
 ICtDFT=  3500011 ScaDFX=  1.000000  1.000000  1.000000  1.000000
 Defaulting to unpruned grid for atomic number  44.
 FoFCou: FMM=F IPFlag=           0 FMFlag=      100000 FMFlg1=        2001
         NFxFlg=           0 DoJE=T BraDBF=F KetDBF=T FulRan=T
         wScrn=  0.000000 ICntrl=       500 IOpCl=  0 I1Cent=   200000004 NGrid=           0
         NMat0=    1 NMatS0=      1 NMatT0=    0 NMatD0=    1 NMtDS0=    0 NMtDT0=    0
 Petite list used in FoFCou.
 Requested convergence on RMS density matrix=1.00D-08 within 128 cycles.
 Requested convergence on MAX density matrix=1.00D-06.
 Requested convergence on             energy=1.00D-06.
 No special actions if energy rises.
 Defaulting to unpruned grid for atomic number  44.
 Defaulting to unpruned grid for atomic number  44.
 Defaulting to unpruned grid for atomic number  44.
 Defaulting to unpruned grid for atomic number  44.
 Defaulting to unpruned grid for atomic number  44.
 Defaulting to unpruned grid for atomic number  44.
 Defaulting to unpruned grid for atomic number  44.
 Defaulting to unpruned grid for atomic number  44.
 Defaulting to unpruned grid for atomic number  44.
 Defaulting to unpruned grid for atomic number  44.
 Defaulting to unpruned grid for atomic number  44.
 Defaulting to unpruned grid for atomic number  44.
 Defaulting to unpruned grid for atomic number  44.
 Defaulting to unpruned grid for atomic number  44.
 Defaulting to unpruned grid for atomic number  44.
 Defaulting to unpruned grid for atomic number  44.
 Defaulting to unpruned grid for atomic number  44.
 Defaulting to unpruned grid for atomic number  44.
 Defaulting to unpruned grid for atomic number  44.
 Defaulting to unpruned grid for atomic number  44.
 Inv3:  Mode=1 IEnd=    47616768.
 Iteration    1 A*A^-1 deviation from unit magnitude is 7.55D-15 for   2806.
 Iteration    1 A*A^-1 deviation from orthogonality  is 2.82D-15 for   3244   2806.
 Iteration    1 A^-1*A deviation from unit magnitude is 5.77D-15 for   2806.
 Iteration    1 A^-1*A deviation from orthogonality  is 1.14D-14 for   2455   2445.
 Error on total polarization charges =  0.07035
 SCF Done:  E(RPBE1PBE) =  -1479.51634989     A.U. after   16 cycles
            NFock= 16  Conv=0.47D-08     -V/T= 2.0489
 SMD-CDS (non-electrostatic) energy       (kcal/mol) =      11.13
 (included in total energy above)
 DoSCS=F DFT=T ScalE2(SS,OS)=  1.000000  1.000000
 ExpMin= 1.60D-02 ExpMax= 9.48D+04 ExpMxC= 3.24D+03 IAcc=3 IRadAn=         5 AccDes= 0.00D+00
 HarFok:  IExCor=  205 AccDes= 0.00D+00 IRadAn=         5 IDoV=-2 UseB2=F ITyADJ=14
 ICtDFT= 12500011 ScaDFX=  1.000000  1.000000  1.000000  1.000000
 Defaulting to unpruned grid for atomic number  44.
 GSVD:  LWork=       -1353 too small for GESVD, short by        5940 words or        5940 for optimal perf.
 Range of M.O.s used for correlation:    34   575
 NBasis=   575 NAE=   109 NBE=   109 NFC=    33 NFV=     0
 NROrb=    542 NOA=    76 NOB=    76 NVA=   466 NVB=   466
 NEqPCM:  Using non-equilibrium solvation (IEInf=1, Eps=  78.3553, EpsInf=   1.7778)
 Inv3:  Mode=1 IEnd=    47616768.
 Iteration    1 A*A^-1 deviation from unit magnitude is 5.11D-15 for   3946.
 Iteration    1 A*A^-1 deviation from orthogonality  is 2.65D-15 for   3675     95.
 Iteration    1 A^-1*A deviation from unit magnitude is 5.11D-15 for   3946.
 Iteration    1 A^-1*A deviation from orthogonality  is 1.99D-15 for   2109    889.
 Orbital symmetries:
       Occupied  (A) (A) (A) (A) (A) (A) (A) (A) (A) (A) (A) (A)
                 (A) (A) (A) (A) (A) (A) (A) (A) (A) (A) (A) (A)
                 (A) (A) (A) (A) (A) (A) (A) (A) (A) (A) (A) (A)
                 (A) (A) (A) (A) (A) (A) (A) (A) (A) (A) (A) (A)
                 (A) (A) (A) (A) (A) (A) (A) (A) (A) (A) (A) (A)
                 (A) (A) (A) (A) (A) (A) (A) (A) (A) (A) (A) (A)
                 (A) (A) (A) (A) (A) (A) (A) (A) (A) (A) (A) (A)
                 (A) (A) (A) (A) (A) (A) (A) (A) (A) (A) (A) (A)
                 (A) (A) (A) (A) (A) (A) (A) (A) (A) (A) (A) (A)
                 (A)
       Virtual   (A) (A) (A) (A) (A) (A) (A) (A) (A) (A) (A) (A)
                 (A) (A) (A) (A) (A) (A) (A) (A) (A) (A) (A) (A)
                 (A) (A) (A) (A) (A) (A) (A) (A) (A) (A) (A) (A)
                 (A) (A) (A) (A) (A) (A) (A) (A) (A) (A) (A) (A)
                 (A) (A) (A) (A) (A) (A) (A) (A) (A) (A) (A) (A)
                 (A) (A) (A) (A) (A) (A) (A) (A) (A) (A) (A) (A)
                 (A) (A) (A) (A) (A) (A) (A) (A) (A) (A) (A) (A)
                 (A) (A) (A) (A) (A) (A) (A) (A) (A) (A) (A) (A)
                 (A) (A) (A) (A) (A) (A) (A) (A) (A) (A) (A) (A)
                 (A) (A) (A) (A) (A) (A) (A) (A) (A) (A) (A) (A)
                 (A) (A) (A) (A) (A) (A) (A) (A) (A) (A) (A) (A)
                 (A) (A) (A) (A) (A) (A) (A) (A) (A) (A) (A) (A)
                 (A) (A) (A) (A) (A) (A) (A) (A) (A) (A) (A) (A)
                 (A) (A) (A) (A) (A) (A) (A) (A) (A) (A) (A) (A)
                 (A) (A) (A) (A) (A) (A) (A) (A) (A) (A) (A) (A)
                 (A) (A) (A) (A) (A) (A) (A) (A) (A) (A) (A) (A)
                 (A) (A) (A) (A) (A) (A) (A) (A) (A) (A) (A) (A)
                 (A) (A) (A) (A) (A) (A) (A) (A) (A) (A) (A) (A)
                 (A) (A) (A) (A) (A) (A) (A) (A) (A) (A) (A) (A)
                 (A) (A) (A) (A) (A) (A) (A) (A) (A) (A) (A) (A)
                 (A) (A) (A) (A) (A) (A) (A) (A) (A) (A) (A) (A)
                 (A) (A) (A) (A) (A) (A) (A) (A) (A) (A) (A) (A)
                 (A) (A) (A) (A) (A) (A) (A) (A) (A) (A) (A) (A)
                 (A) (A) (A) (A) (A) (A) (A) (A) (A) (A) (A) (A)
                 (A) (A) (A) (A) (A) (A) (A) (A) (A) (A) (A) (A)
                 (A) (A) (A) (A) (A) (A) (A) (A) (A) (A) (A) (A)
                 (A) (A) (A) (A) (A) (A) (A) (A) (A) (A) (A) (A)
                 (A) (A) (A) (A) (A) (A) (A) (A) (A) (A) (A) (A)
                 (A) (A) (A) (A) (A) (A) (A) (A) (A) (A) (A) (A)
                 (A) (A) (A) (A) (A) (A) (A) (A) (A) (A) (A) (A)
                 (A) (A) (A) (A) (A) (A) (A) (A) (A) (A) (A) (A)
                 (A) (A) (A) (A) (A) (A) (A) (A) (A) (A) (A) (A)
                 (A) (A) (A) (A) (A) (A) (A) (A) (A) (A) (A) (A)
                 (A) (A) (A) (A) (A) (A) (A) (A) (A) (A) (A) (A)
                 (A) (A) (A) (A) (A) (A) (A) (A) (A) (A) (A) (A)
                 (A) (A) (A) (A) (A) (A) (A) (A) (A) (A) (A) (A)
                 (A) (A) (A) (A) (A) (A) (A) (A) (A) (A) (A) (A)
                 (A) (A) (A) (A) (A) (A) (A) (A) (A) (A) (A) (A)
                 (A) (A) (A) (A) (A) (A) (A) (A) (A) (A)
   100 initial guesses have been made.
 Convergence on wavefunction:    0.001000000000000
 Iteration     1 Dimension   100 NMult     0 NNew    100
 CISAX will form    20 AO SS matrices at one time.
 Defaulting to unpruned grid for atomic number  44.
 Defaulting to unpruned grid for atomic number  44.
 Defaulting to unpruned grid for atomic number  44.
 Defaulting to unpruned grid for atomic number  44.
 Defaulting to unpruned grid for atomic number  44.
 Defaulting to unpruned grid for atomic number  44.
 Defaulting to unpruned grid for atomic number  44.
 Defaulting to unpruned grid for atomic number  44.
 Defaulting to unpruned grid for atomic number  44.
 Defaulting to unpruned grid for atomic number  44.
 Defaulting to unpruned grid for atomic number  44.
 Defaulting to unpruned grid for atomic number  44.
 Defaulting to unpruned grid for atomic number  44.
 Defaulting to unpruned grid for atomic number  44.
 Defaulting to unpruned grid for atomic number  44.
 Defaulting to unpruned grid for atomic number  44.
 Defaulting to unpruned grid for atomic number  44.
 Defaulting to unpruned grid for atomic number  44.
 Defaulting to unpruned grid for atomic number  44.
 Defaulting to unpruned grid for atomic number  44.
 New state      2 was old state      6
 New state      3 was old state      2
 New state      4 was old state      3
 New state      6 was old state      4
 New state      7 was old state     14
 New state      8 was old state      7
 New state     10 was old state      8
 New state     11 was old state     22
 New state     12 was old state     20
 New state     13 was old state     10
 New state     14 was old state     19
 New state     15 was old state     11
 New state     16 was old state     18
 New state     18 was old state     16
 New state     19 was old state     13
 New state     20 was old state     24
 New state     21 was old state     15
 New state     22 was old state     38
 New state     23 was old state     21
 New state     24 was old state     12
 New state     25 was old state     28
 Iteration     2 Dimension   150 NMult   100 NNew     50
 New state     13 was old state     16
 New state     14 was old state     13
 New state     15 was old state     14
 New state     16 was old state     15
 New state     21 was old state     24
 New state     23 was old state     21
 New state     24 was old state     23
 Iteration     3 Dimension   200 NMult   150 NNew     50
 Iteration     4 Dimension   250 NMult   200 NNew     50
 Iteration     5 Dimension   270 NMult   250 NNew     20
 ***********************************************************************
 Excited states from <AA,BB:AA,BB> singles matrix:
 ***********************************************************************
 
 Ground to excited state transition densities written to RWF  633
 Ground to excited state transition electric dipole moments (Au):
       state          X           Y           Z        Dip. S.      Osc.
         1        -0.1373     -0.2488     -0.0243      0.0813      0.0062
         2        -0.3031      0.0222     -0.2079      0.1355      0.0120
         3         0.1265     -0.1621      0.0873      0.0499      0.0047
         4         0.2551     -0.7715      0.1329      0.6779      0.0666
         5        -0.0169     -0.0345      0.0607      0.0052      0.0005
         6         0.2589     -0.5047      0.0399      0.3234      0.0344
         7         0.1477     -0.3397      0.0520      0.1399      0.0154
         8         0.0005      0.1362      0.0107      0.0187      0.0021
         9         0.0892     -0.0608      0.0676      0.0162      0.0019
        10         0.0101     -0.2092      0.0259      0.0445      0.0052
        11        -0.0642      0.2050      0.1253      0.0618      0.0072
        12        -0.0014      0.1014      0.0501      0.0128      0.0015
        13         0.0991     -0.1895      0.1444      0.0666      0.0081
        14         0.1415     -0.0538      0.1151      0.0362      0.0044
        15        -0.1227      0.0710      0.1058      0.0313      0.0039
        16         0.0023     -0.0508     -0.1562      0.0270      0.0033
        17         0.5852      0.0249     -0.2540      0.4076      0.0522
        18        -0.0862      0.0698     -0.0334      0.0134      0.0017
        19         0.3217      0.2331     -0.0145      0.1581      0.0206
        20         0.2245      0.1375      0.0995      0.0792      0.0104
        21         0.3527      0.3184     -0.0521      0.2285      0.0304
        22         0.3378      0.2029     -0.0193      0.1557      0.0209
        23         0.1011      0.0429      0.1049      0.0231      0.0031
        24         0.0621      0.0390     -0.0597      0.0089      0.0012
        25        -0.0845     -0.0218     -0.0522      0.0103      0.0014
 Ground to excited state transition velocity dipole moments (Au):
       state          X           Y           Z        Dip. S.      Osc.
         1         0.0167      0.0249      0.0025      0.0009      0.0053
         2         0.0327     -0.0038      0.0210      0.0015      0.0076
         3        -0.0188      0.0177     -0.0094      0.0008      0.0036
         4        -0.0369      0.0990     -0.0167      0.0114      0.0518
         5        -0.0045     -0.0046     -0.0130      0.0002      0.0009
         6        -0.0397      0.0712     -0.0056      0.0067      0.0279
         7        -0.0195      0.0540     -0.0033      0.0033      0.0134
         8        -0.0062     -0.0220      0.0030      0.0005      0.0021
         9        -0.0148      0.0067     -0.0127      0.0004      0.0016
        10        -0.0058      0.0342     -0.0098      0.0013      0.0050
        11         0.0211     -0.0292     -0.0221      0.0018      0.0068
        12         0.0011     -0.0148      0.0061      0.0003      0.0010
        13        -0.0190      0.0229     -0.0154      0.0011      0.0041
        14        -0.0368      0.0085     -0.0181      0.0018      0.0064
        15         0.0208     -0.0146     -0.0257      0.0013      0.0047
        16         0.0041      0.0100      0.0294      0.0010      0.0035
        17        -0.1137     -0.0016      0.0476      0.0152      0.0527
        18         0.0183     -0.0089      0.0091      0.0005      0.0017
        19        -0.0624     -0.0432      0.0007      0.0058      0.0196
        20        -0.0457     -0.0319     -0.0196      0.0035      0.0118
        21        -0.0699     -0.0667      0.0095      0.0094      0.0315
        22        -0.0675     -0.0366      0.0097      0.0060      0.0198
        23        -0.0209     -0.0090     -0.0266      0.0012      0.0040
        24        -0.0152     -0.0128      0.0065      0.0004      0.0014
        25         0.0170      0.0091      0.0037      0.0004      0.0012
 Ground to excited state transition magnetic dipole moments (Au):
       state          X           Y           Z
         1         0.0487     -0.7032     -0.2511
         2        -0.0718     -0.7534      0.4002
         3        -0.0201     -0.0262      0.0661
         4         0.3551      0.0218     -0.0227
         5         0.4387     -0.4258      0.4266
         6        -0.0243      0.2651      0.1055
         7         0.0609     -0.0019     -0.0286
         8         0.2668      0.1671      0.2361
         9        -0.0449      0.0984      0.7022
        10         0.1721      0.1610      0.4501
        11         0.5511      0.2712     -0.2703
        12        -0.2628      0.2410     -0.0139
        13         0.8208      0.3812      0.4496
        14         0.2948     -0.1775      0.0501
        15        -0.1023     -0.1834     -0.5808
        16         0.0045     -0.0809      0.0875
        17         0.3108      0.2064      1.5803
        18        -0.2287     -0.1731     -0.3546
        19         0.0405      0.1035      0.6412
        20        -0.0199      0.0614     -0.0185
        21         0.3881      0.4513      1.3514
        22         0.2564     -0.0619      0.1898
        23        -0.0125      0.1322     -0.1115
        24        -0.1263     -0.0319      0.0285
        25         0.1867     -0.2642     -0.0875
 Ground to excited state transition velocity quadrupole moments (Au):
       state          XX          YY          ZZ          XY          XZ          YZ
         1        -0.0447      0.1178     -0.0083     -0.0368     -0.0077     -0.0474
         2        -0.0061     -0.1018      0.0643      0.0117      0.0452      0.0314
         3         0.0374      0.1595     -0.0872     -0.0751     -0.0452     -0.0313
         4         0.0239      0.4230     -0.0916     -0.2224      0.0247     -0.0754
         5         0.0656      0.0044     -0.0576     -0.0109     -0.0708     -0.0724
         6         0.0581      0.2096     -0.0299     -0.1230     -0.0177     -0.0515
         7         0.0104      0.1983     -0.0358     -0.1249      0.0276     -0.0525
         8         0.0552     -0.1620      0.0227      0.0305     -0.0101      0.0159
         9         0.0390      0.1205     -0.1269     -0.1313      0.0436     -0.0191
        10         0.0918      0.1390     -0.0759     -0.1050      0.1545      0.0728
        11         0.0331      0.0271     -0.0938     -0.0568      0.0147      0.0042
        12        -0.0997      0.0354     -0.0160     -0.0693     -0.0788     -0.0190
        13         0.1009     -0.1559      0.0536      0.0065      0.0862     -0.0503
        14        -0.0195      0.0567     -0.0669      0.0325     -0.0409     -0.0998
        15        -0.0199      0.0110     -0.0060      0.0904     -0.0165     -0.0316
        16         0.0201     -0.1454      0.1364     -0.0168      0.0430      0.0695
        17         0.2752     -0.1257     -0.0345     -0.3796     -0.0402      0.1847
        18        -0.1088     -0.0223      0.0640      0.0914     -0.0383     -0.0247
        19         0.3000     -0.1014     -0.0953      0.0081      0.0159      0.0883
        20         0.0268      0.0648     -0.1514     -0.0324     -0.2200     -0.1324
        21         0.3825     -0.4597     -0.0861     -0.1669     -0.0374      0.1933
        22         0.1839     -0.0605     -0.0770      0.0281     -0.1529     -0.0862
        23         0.0736      0.0260     -0.1705     -0.1216     -0.1521     -0.0005
        24         0.0219     -0.0451     -0.1282      0.1036      0.0026     -0.0990
        25         0.0275     -0.0394     -0.1175     -0.0280      0.0925     -0.0015
 <0|del|b> * <b|rxdel|0> + <0|del|b> * <b|delr+rdel|0>
 Rotatory Strengths (R) in cgs (10**-40 erg-esu-cm/Gauss)
       state          XX          YY          ZZ    R(velocity)    E-M Angle
         1       -56.2800     -1.6148    -50.2200    -36.0383      140.41
         2        31.0383     18.1504     -1.7989     15.7966       74.51
         3         1.0513     -0.9033     -3.6849     -1.1790      110.35
         4         9.1437    -32.7772    -27.0898    -16.9078      106.09
         5        -8.8647    -17.1771     -0.0976     -8.7131      121.12
         6        44.7972      3.8079     36.6018     28.4023       34.69
         7        -2.3326     -1.0278     -1.7540     -1.7048      107.94
         8        -6.5009     -2.3781    -10.4502     -6.4430      120.68
         9       -14.0651    -19.7020      2.7224    -10.3482      121.31
        10        -6.4311    -13.9374     20.7225      0.1180       90.00
        11        -0.5152     33.0841      6.4538     13.0076       70.00
        12       -10.3171      0.0642     -5.2445     -5.1658      133.43
        13        -0.4989    -41.5302    -11.2702    -17.7665      113.98
        14        -5.0927    -14.4129    -31.4702    -16.9919      155.60
        15        28.8021     27.7230      2.7638     19.7630       46.05
        16         1.5949      6.4134     -1.2261      2.2607       61.56
        17       104.3512     67.9469    -26.8592     48.4796       78.60
        18        -2.1760    -15.8950     -3.3766     -7.1492      125.21
        19        -6.0405    -13.7344     -3.9364     -7.9038       97.63
        20       -14.3497     12.0157     -0.1304     -0.8215       99.95
        21       -37.6636    -46.3438    -73.0219    -52.3431      108.01
        22        -2.1292    -17.3590    -26.7078    -15.3987      121.62
        23         6.3043      0.0053      0.7483      2.3526       70.44
        24         2.2665      5.1006      1.3716      2.9129       25.65
        25        -6.2865      5.0087      2.7875      0.5032       86.15
 1/2[<0|r|b>*<b|rxdel|0> + (<0|rxdel|b>*<b|r|0>)*]
 Rotatory Strengths (R) in cgs (10**-40 erg-esu-cm/Gauss)
       state          XX          YY          ZZ     R(length)
         1         4.7297   -123.7088     -4.3157    -41.0983
         2       -15.3939     11.8368     58.8251     18.4227
         3         1.7988     -3.0044     -4.0798     -1.7618
         4       -64.0560     11.9183      2.1332    -16.6682
         5         5.2437    -10.3945    -18.3161     -7.8223
         6         4.4444     94.6191     -2.9785     32.0283
         7        -6.3661     -0.4453      1.0504     -1.9204
         8        -0.0976    -16.0865     -1.7831     -5.9891
         9         2.8357      4.2316    -33.5655     -8.8327
        10        -1.2235     23.8186     -8.2536      4.7805
        11        25.0143    -39.3229     23.9477      3.2131
        12        -0.2692    -17.2718      0.4940     -5.6823
        13       -57.5488     51.0968    -45.9208    -17.4576
        14       -29.5012     -6.7542     -4.0815    -13.4456
        15        -8.8810      9.2044     43.4478     14.5904
        16        -0.0073     -2.9069      9.6645      2.2501
        17      -128.6268     -3.6311    283.9065     50.5495
        18       -13.9383      8.5437     -8.3865     -4.5937
        19        -9.2115    -17.0567      6.5847     -6.5612
        20         3.1662     -5.9704      1.3033     -0.5003
        21       -96.8025   -101.6138     49.7452    -49.5570
        22       -61.2398      8.8857      2.5893    -16.5883
        23         0.8924     -4.0066      8.2728      1.7195
        24         5.5491      0.8807      1.2030      2.5443
        25        11.1577     -4.0703     -3.2286      1.2863
  1/2[<0|del|b>*<b|r|0> + (<0|r|b>*<b|del|0>)*] (Au)
       state          X           Y           Z        Dip. S.   Osc.(frdel)
         1        -0.0023     -0.0062     -0.0001      0.0085      0.0057
         2        -0.0099     -0.0001     -0.0044      0.0143      0.0096
         3        -0.0024     -0.0029     -0.0008      0.0061      0.0040
         4        -0.0094     -0.0764     -0.0022      0.0880      0.0587
         5         0.0001      0.0002     -0.0008      0.0006      0.0004
         6        -0.0103     -0.0359     -0.0002      0.0464      0.0309
         7        -0.0029     -0.0184     -0.0002      0.0214      0.0143
         8        -0.0000     -0.0030      0.0000      0.0030      0.0020
         9        -0.0013     -0.0004     -0.0009      0.0026      0.0017
        10        -0.0001     -0.0072     -0.0003      0.0075      0.0050
        11        -0.0014     -0.0060     -0.0028      0.0101      0.0067
        12        -0.0000     -0.0015      0.0003      0.0012      0.0008
        13        -0.0019     -0.0043     -0.0022      0.0084      0.0056
        14        -0.0052     -0.0005     -0.0021      0.0077      0.0052
        15        -0.0025     -0.0010     -0.0027      0.0063      0.0042
        16         0.0000     -0.0005     -0.0046      0.0051      0.0034
        17        -0.0665     -0.0000     -0.0121      0.0786      0.0524
        18        -0.0016     -0.0006     -0.0003      0.0025      0.0017
        19        -0.0201     -0.0101     -0.0000      0.0302      0.0201
        20        -0.0103     -0.0044     -0.0020      0.0166      0.0111
        21        -0.0247     -0.0212     -0.0005      0.0464      0.0309
        22        -0.0228     -0.0074     -0.0002      0.0304      0.0203
        23        -0.0021     -0.0004     -0.0028      0.0053      0.0035
        24        -0.0009     -0.0005     -0.0004      0.0018      0.0012
        25        -0.0014     -0.0002     -0.0002      0.0018      0.0012

 Excitation energies and oscillator strengths:
 
 Excited State   1:      Singlet-A      3.0872 eV  401.61 nm  f=0.0062  <S**2>=0.000
     109 ->110         0.67695
     109 ->113         0.15375
 This state for optimization and/or second-order correction.
 Total Energy, E(TD-HF/TD-DFT) =  -1479.40289910    
 Copying the excited state density for this state as the 1-particle RhoCI density.
 
 Excited State   2:      Singlet-A      3.6212 eV  342.38 nm  f=0.0120  <S**2>=0.000
     109 ->110        -0.18424
     109 ->111         0.11745
     109 ->112        -0.37475
     109 ->113         0.42989
     109 ->114         0.24198
     109 ->115        -0.11252
     109 ->118        -0.10810
 
 Excited State   3:      Singlet-A      3.8405 eV  322.84 nm  f=0.0047  <S**2>=0.000
     108 ->110        -0.15163
     109 ->111         0.67267
     109 ->112         0.10102
 
 Excited State   4:      Singlet-A      4.0093 eV  309.24 nm  f=0.0666  <S**2>=0.000
     107 ->110        -0.11675
     108 ->110         0.65259
     108 ->113         0.12052
     109 ->111         0.15975
 
 Excited State   5:      Singlet-A      4.1095 eV  301.70 nm  f=0.0005  <S**2>=0.000
     109 ->112         0.36201
     109 ->113         0.43749
     109 ->114        -0.28816
     109 ->117        -0.19622
 
 Excited State   6:      Singlet-A      4.3432 eV  285.47 nm  f=0.0344  <S**2>=0.000
     107 ->110         0.66205
     107 ->113         0.10508
     108 ->112        -0.10055
 
 Excited State   7:      Singlet-A      4.4901 eV  276.13 nm  f=0.0154  <S**2>=0.000
     107 ->110         0.11601
     108 ->110         0.13815
     108 ->112         0.41470
     108 ->113        -0.30693
     108 ->114        -0.31199
     108 ->115         0.14257
     109 ->113        -0.10752
     109 ->118         0.15242
 
 Excited State   8:      Singlet-A      4.6139 eV  268.72 nm  f=0.0021  <S**2>=0.000
     104 ->110        -0.15780
     108 ->111         0.66378
 
 Excited State   9:      Singlet-A      4.7212 eV  262.61 nm  f=0.0019  <S**2>=0.000
     106 ->110         0.41727
     107 ->112        -0.18140
     107 ->113         0.14232
     107 ->114         0.14392
     108 ->113        -0.10147
     109 ->112         0.23884
     109 ->114         0.33159
 
 Excited State  10:      Singlet-A      4.7433 eV  261.39 nm  f=0.0052  <S**2>=0.000
     106 ->110         0.41469
     107 ->112        -0.10063
     109 ->112        -0.27859
     109 ->114        -0.40630
     109 ->118        -0.12142
 
 Excited State  11:      Singlet-A      4.7794 eV  259.41 nm  f=0.0072  <S**2>=0.000
     106 ->110         0.35387
     107 ->112         0.32334
     107 ->113        -0.21428
     107 ->114        -0.24625
     108 ->113         0.22894
     108 ->117        -0.11229
 
 Excited State  12:      Singlet-A      4.8985 eV  253.11 nm  f=0.0015  <S**2>=0.000
     108 ->112        -0.11633
     108 ->113         0.10299
     109 ->115        -0.27598
     109 ->116         0.17797
     109 ->118         0.54493
 
 Excited State  13:      Singlet-A      4.9622 eV  249.86 nm  f=0.0081  <S**2>=0.000
     107 ->112        -0.17796
     107 ->113         0.14437
     107 ->114         0.12336
     107 ->118        -0.14812
     108 ->112         0.15901
     108 ->113         0.44019
     108 ->114        -0.25794
     108 ->119         0.17221
     108 ->120        -0.14156
     109 ->117        -0.12182
 
 Excited State  14:      Singlet-A      5.0075 eV  247.60 nm  f=0.0044  <S**2>=0.000
     107 ->111        -0.21235
     107 ->112        -0.12539
     107 ->114         0.11324
     109 ->112         0.17445
     109 ->113         0.11527
     109 ->115        -0.19373
     109 ->117         0.51034
     109 ->118        -0.13651
     109 ->119         0.10870
 
 Excited State  15:      Singlet-A      5.0254 eV  246.71 nm  f=0.0039  <S**2>=0.000
     104 ->110        -0.16444
     107 ->111         0.63420
     109 ->117         0.17656
 
 Excited State  16:      Singlet-A      5.0543 eV  245.30 nm  f=0.0033  <S**2>=0.000
     105 ->110         0.66975
 
[...]
     107 ->113         0.14167
     108 ->118         0.10997
     109 ->114         0.16463
     109 ->115         0.19792
     109 ->119         0.45517
     109 ->120        -0.21707
 SavETr:  write IOETrn=   770 NScale= 10 NData=  16 NLR=1 NState=   25 LETran=     460.

 **********************************************************************

            Population analysis using the SCF density.

 **********************************************************************

 Orbital symmetries:
       Occupied  (A) (A) (A) (A) (A) (A) (A) (A) (A) (A) (A) (A)
                 (A) (A) (A) (A) (A) (A) (A) (A) (A) (A) (A) (A)
                 (A) (A) (A) (A) (A) (A) (A) (A) (A) (A) (A) (A)
                 (A) (A) (A) (A) (A) (A) (A) (A) (A) (A) (A) (A)
                 (A) (A) (A) (A) (A) (A) (A) (A) (A) (A) (A) (A)
                 (A) (A) (A) (A) (A) (A) (A) (A) (A) (A) (A) (A)
                 (A) (A) (A) (A) (A) (A) (A) (A) (A) (A) (A) (A)
                 (A) (A) (A) (A) (A) (A) (A) (A) (A) (A) (A) (A)
                 (A) (A) (A) (A) (A) (A) (A) (A) (A) (A) (A) (A)
                 (A)
       Virtual   (A) (A) (A) (A) (A) (A) (A) (A) (A) (A) (A) (A)
                 (A) (A) (A) (A) (A) (A) (A) (A) (A) (A) (A) (A)
                 (A) (A) (A) (A) (A) (A) (A) (A) (A) (A) (A) (A)
                 (A) (A) (A) (A) (A) (A) (A) (A) (A) (A) (A) (A)
                 (A) (A) (A) (A) (A) (A) (A) (A) (A) (A) (A) (A)
                 (A) (A) (A) (A) (A) (A) (A) (A) (A) (A) (A) (A)
                 (A) (A) (A) (A) (A) (A) (A) (A) (A) (A) (A) (A)
                 (A) (A) (A) (A) (A) (A) (A) (A) (A) (A) (A) (A)
                 (A) (A) (A) (A) (A) (A) (A) (A) (A) (A) (A) (A)
                 (A) (A) (A) (A) (A) (A) (A) (A) (A) (A) (A) (A)
                 (A) (A) (A) (A) (A) (A) (A) (A) (A) (A) (A) (A)
                 (A) (A) (A) (A) (A) (A) (A) (A) (A) (A) (A) (A)
                 (A) (A) (A) (A) (A) (A) (A) (A) (A) (A) (A) (A)
                 (A) (A) (A) (A) (A) (A) (A) (A) (A) (A) (A) (A)
                 (A) (A) (A) (A) (A) (A) (A) (A) (A) (A) (A) (A)
                 (A) (A) (A) (A) (A) (A) (A) (A) (A) (A) (A) (A)
                 (A) (A) (A) (A) (A) (A) (A) (A) (A) (A) (A) (A)
                 (A) (A) (A) (A) (A) (A) (A) (A) (A) (A) (A) (A)
                 (A) (A) (A) (A) (A) (A) (A) (A) (A) (A) (A) (A)
                 (A) (A) (A) (A) (A) (A) (A) (A) (A) (A) (A) (A)
                 (A) (A) (A) (A) (A) (A) (A) (A) (A) (A) (A) (A)
                 (A) (A) (A) (A) (A) (A) (A) (A) (A) (A) (A) (A)
                 (A) (A) (A) (A) (A) (A) (A) (A) (A) (A) (A) (A)
                 (A) (A) (A) (A) (A) (A) (A) (A) (A) (A) (A) (A)
                 (A) (A) (A) (A) (A) (A) (A) (A) (A) (A) (A) (A)
                 (A) (A) (A) (A) (A) (A) (A) (A) (A) (A) (A) (A)
                 (A) (A) (A) (A) (A) (A) (A) (A) (A) (A) (A) (A)
                 (A) (A) (A) (A) (A) (A) (A) (A) (A) (A) (A) (A)
                 (A) (A) (A) (A) (A) (A) (A) (A) (A) (A) (A) (A)
                 (A) (A) (A) (A) (A) (A) (A) (A) (A) (A) (A) (A)
                 (A) (A) (A) (A) (A) (A) (A) (A) (A) (A) (A) (A)
                 (A) (A) (A) (A) (A) (A) (A) (A) (A) (A) (A) (A)
                 (A) (A) (A) (A) (A) (A) (A) (A) (A) (A) (A) (A)
                 (A) (A) (A) (A) (A) (A) (A) (A) (A) (A) (A) (A)
                 (A) (A) (A) (A) (A) (A) (A) (A) (A) (A) (A) (A)
                 (A) (A) (A) (A) (A) (A) (A) (A) (A) (A) (A) (A)
                 (A) (A) (A) (A) (A) (A) (A) (A) (A) (A) (A) (A)
                 (A) (A) (A) (A) (A) (A) (A) (A) (A) (A) (A) (A)
                 (A) (A) (A) (A) (A) (A) (A) (A) (A) (A)
 The electronic state is 1-A.
 Alpha  occ. eigenvalues --  -77.25114 -19.25387 -19.13950 -14.43328 -14.43174
 Alpha  occ. eigenvalues --  -10.31303 -10.29381 -10.28859 -10.25811 -10.25548
 Alpha  occ. eigenvalues --  -10.25298 -10.25169 -10.24966 -10.24785 -10.24666
 Alpha  occ. eigenvalues --  -10.24643 -10.24227 -10.21746 -10.21709 -10.21659
 Alpha  occ. eigenvalues --  -10.21654 -10.21618 -10.21478 -10.21346 -10.20616
 Alpha  occ. eigenvalues --   -6.63018  -4.76671  -4.76571  -4.76349  -3.02551
 Alpha  occ. eigenvalues --   -1.87006  -1.85454  -1.84393  -1.12055  -1.00642
 Alpha  occ. eigenvalues --   -0.96499  -0.91373  -0.84942  -0.83737  -0.83160
 Alpha  occ. eigenvalues --   -0.82359  -0.77714  -0.76825  -0.74036  -0.70359
 Alpha  occ. eigenvalues --   -0.70268  -0.69816  -0.69336  -0.68951  -0.66051
 Alpha  occ. eigenvalues --   -0.65706  -0.63019  -0.61796  -0.57401  -0.56366
 Alpha  occ. eigenvalues --   -0.55751  -0.53090  -0.52737  -0.51799  -0.50835
 Alpha  occ. eigenvalues --   -0.49633  -0.48150  -0.47391  -0.46368  -0.45704
 Alpha  occ. eigenvalues --   -0.45515  -0.45380  -0.45232  -0.44447  -0.44105
 Alpha  occ. eigenvalues --   -0.43732  -0.43287  -0.42983  -0.42655  -0.42063
 Alpha  occ. eigenvalues --   -0.41512  -0.41242  -0.40828  -0.40140  -0.39733
 Alpha  occ. eigenvalues --   -0.39213  -0.38663  -0.38500  -0.37892  -0.37692
 Alpha  occ. eigenvalues --   -0.37621  -0.36549  -0.36241  -0.36055  -0.35783
 Alpha  occ. eigenvalues --   -0.35022  -0.34754  -0.34252  -0.34212  -0.33396
 Alpha  occ. eigenvalues --   -0.32909  -0.32481  -0.32405  -0.32036  -0.31565
 Alpha  occ. eigenvalues --   -0.31020  -0.29421  -0.26997  -0.26567  -0.26045
 Alpha  occ. eigenvalues --   -0.24762  -0.23456  -0.22235  -0.19201
 Alpha virt. eigenvalues --   -0.03794  -0.01608   0.00694   0.01166   0.01859
 Alpha virt. eigenvalues --    0.03676   0.03822   0.04376   0.04829   0.06245
 Alpha virt. eigenvalues --    0.07831   0.09116   0.09454   0.09494   0.09998
 Alpha virt. eigenvalues --    0.10317   0.10981   0.11109   0.11798   0.11927
 Alpha virt. eigenvalues --    0.12410   0.12690   0.13449   0.13606   0.13760
 Alpha virt. eigenvalues --    0.14145   0.14555   0.14693   0.15160   0.15706
 Alpha virt. eigenvalues --    0.15962   0.16350   0.16960   0.17252   0.17810
 Alpha virt. eigenvalues --    0.18033   0.18235   0.18469   0.18723   0.19016
 Alpha virt. eigenvalues --    0.19216   0.19584   0.19925   0.20458   0.20958
 Alpha virt. eigenvalues --    0.21295   0.21370   0.21835   0.22025   0.22204
 Alpha virt. eigenvalues --    0.22608   0.22909   0.23340   0.23674   0.23711
 Alpha virt. eigenvalues --    0.24415   0.25108   0.25217   0.25633   0.26764
 Alpha virt. eigenvalues --    0.27331   0.28227   0.28474   0.28785   0.29283
 Alpha virt. eigenvalues --    0.29564   0.29932   0.30806   0.31718   0.32030
 Alpha virt. eigenvalues --    0.33013   0.33391   0.34418   0.35725   0.36478
 Alpha virt. eigenvalues --    0.37775   0.37834   0.40268   0.41493   0.42311
 Alpha virt. eigenvalues --    0.42963   0.44122   0.44468   0.45283   0.45614
 Alpha virt. eigenvalues --    0.45775   0.46625   0.47597   0.47821   0.48734
 Alpha virt. eigenvalues --    0.49403   0.50193   0.50545   0.51011   0.51621
 Alpha virt. eigenvalues --    0.52116   0.52599   0.52995   0.53668   0.54318
 Alpha virt. eigenvalues --    0.54604   0.55363   0.55979   0.56848   0.57173
 Alpha virt. eigenvalues --    0.57767   0.58081   0.58815   0.59465   0.59849
 Alpha virt. eigenvalues --    0.60475   0.60603   0.61321   0.61831   0.62481
 Alpha virt. eigenvalues --    0.62713   0.62974   0.63413   0.63774   0.64150
 Alpha virt. eigenvalues --    0.64720   0.64789   0.65265   0.65380   0.66185
 Alpha virt. eigenvalues --    0.66564   0.66696   0.67033   0.67348   0.67584
 Alpha virt. eigenvalues --    0.67826   0.67882   0.68316   0.68653   0.68906
 Alpha virt. eigenvalues --    0.69160   0.69397   0.69742   0.70306   0.70753
 Alpha virt. eigenvalues --    0.71074   0.71499   0.71847   0.72106   0.72380
 Alpha virt. eigenvalues --    0.72774   0.73366   0.73578   0.73904   0.74828
 Alpha virt. eigenvalues --    0.75080   0.75228   0.75828   0.76744   0.76977
 Alpha virt. eigenvalues --    0.77413   0.78213   0.78350   0.78696   0.78872
 Alpha virt. eigenvalues --    0.79297   0.80087   0.80437   0.80845   0.81629
 Alpha virt. eigenvalues --    0.82489   0.82790   0.83358   0.83968   0.84701
 Alpha virt. eigenvalues --    0.85364   0.85900   0.86604   0.87157   0.87825
 Alpha virt. eigenvalues --    0.88293   0.89005   0.89792   0.90242   0.90745
 Alpha virt. eigenvalues --    0.91544   0.91650   0.92015   0.93456   0.93972
 Alpha virt. eigenvalues --    0.94790   0.95462   0.95974   0.97170   0.97702
 Alpha virt. eigenvalues --    0.98257   0.98589   0.99277   0.99311   0.99860
 Alpha virt. eigenvalues --    1.00915   1.01804   1.02617   1.03600   1.04417
 Alpha virt. eigenvalues --    1.05055   1.06026   1.06766   1.07274   1.08218
 Alpha virt. eigenvalues --    1.10329   1.11363   1.11671   1.12509   1.13439
 Alpha virt. eigenvalues --    1.14073   1.14484   1.16134   1.17296   1.18241
 Alpha virt. eigenvalues --    1.18642   1.20725   1.21556   1.22268   1.24074
 Alpha virt. eigenvalues --    1.25395   1.25848   1.26543   1.26882   1.27257
 Alpha virt. eigenvalues --    1.28443   1.29151   1.29737   1.30557   1.31403
 Alpha virt. eigenvalues --    1.32377   1.33220   1.34616   1.35715   1.35969
 Alpha virt. eigenvalues --    1.36369   1.36881   1.37206   1.37881   1.38815
 Alpha virt. eigenvalues --    1.39874   1.40646   1.40870   1.41427   1.41871
 Alpha virt. eigenvalues --    1.43614   1.43786   1.44246   1.44667   1.45463
 Alpha virt. eigenvalues --    1.45650   1.46232   1.46671   1.47009   1.47650
 Alpha virt. eigenvalues --    1.47869   1.48432   1.48867   1.49987   1.50721
 Alpha virt. eigenvalues --    1.51304   1.51970   1.52577   1.53203   1.53724
 Alpha virt. eigenvalues --    1.54445   1.54660   1.55579   1.56524   1.57039
 Alpha virt. eigenvalues --    1.57243   1.57652   1.58490   1.59252   1.60260
 Alpha virt. eigenvalues --    1.60966   1.61876   1.62244   1.62743   1.63231
 Alpha virt. eigenvalues --    1.64223   1.64493   1.65365   1.65577   1.65914
 Alpha virt. eigenvalues --    1.66557   1.67251   1.67530   1.68657   1.68738
 Alpha virt. eigenvalues --    1.69434   1.69903   1.70229   1.70385   1.70609
 Alpha virt. eigenvalues --    1.71301   1.71617   1.72140   1.72399   1.72574
 Alpha virt. eigenvalues --    1.73548   1.73739   1.73919   1.74335   1.74650
 Alpha virt. eigenvalues --    1.75169   1.75556   1.75793   1.76644   1.76906
 Alpha virt. eigenvalues --    1.77466   1.77720   1.77913   1.78846   1.79028
 Alpha virt. eigenvalues --    1.79717   1.80417   1.81034   1.81649   1.81873
 Alpha virt. eigenvalues --    1.82264   1.83425   1.83446   1.84150   1.84373
 Alpha virt. eigenvalues --    1.85351   1.86463   1.86600   1.86852   1.87320
 Alpha virt. eigenvalues --    1.87488   1.88363   1.88934   1.89335   1.90285
 Alpha virt. eigenvalues --    1.91282   1.91960   1.92135   1.92921   1.93377
 Alpha virt. eigenvalues --    1.93527   1.95294   1.96088   1.97353   1.98169
 Alpha virt. eigenvalues --    1.98379   1.98782   1.99126   1.99945   2.00736
 Alpha virt. eigenvalues --    2.00978   2.01900   2.02689   2.03628   2.03978
 Alpha virt. eigenvalues --    2.04682   2.05044   2.05955   2.06437   2.07150
 Alpha virt. eigenvalues --    2.07395   2.07941   2.08539   2.08936   2.09562
 Alpha virt. eigenvalues --    2.10906   2.11240   2.11933   2.12309   2.13836
 Alpha virt. eigenvalues --    2.14048   2.14727   2.16198   2.16927   2.18227
 Alpha virt. eigenvalues --    2.19311   2.20011   2.21322   2.21621   2.22534
 Alpha virt. eigenvalues --    2.23503   2.24541   2.25412   2.25894   2.26340
 Alpha virt. eigenvalues --    2.26502   2.27219   2.28154   2.29108   2.29523
 Alpha virt. eigenvalues --    2.30795   2.31486   2.33363   2.34958   2.37568
 Alpha virt. eigenvalues --    2.39089   2.40505   2.41606   2.41951   2.42645
 Alpha virt. eigenvalues --    2.42927   2.43317   2.43633   2.44145   2.44610
 Alpha virt. eigenvalues --    2.44899   2.45718   2.47191   2.47447   2.48374
 Alpha virt. eigenvalues --    2.48475   2.49187   2.49687   2.50176   2.50973
 Alpha virt. eigenvalues --    2.51261   2.52487   2.52789   2.54016   2.54263
 Alpha virt. eigenvalues --    2.54440   2.55588   2.56643   2.57042   2.57276
 Alpha virt. eigenvalues --    2.58033   2.58764   2.59719   2.60181   2.60540
 Alpha virt. eigenvalues --    2.60610   2.62068   2.62602   2.63876   2.64620
 Alpha virt. eigenvalues --    2.66003   2.66718   2.68753   2.69696   2.70429
 Alpha virt. eigenvalues --    2.70984   2.72116   2.74205   2.75236   2.77350
 Alpha virt. eigenvalues --    2.79531   2.80876   2.81814   2.82561   2.83480
 Alpha virt. eigenvalues --    2.84691   2.86823   2.94134   2.99434   3.01383
 Alpha virt. eigenvalues --    3.07898   3.12140   3.12463   3.13627   3.51839
 Alpha virt. eigenvalues --    3.58709   3.84039  34.71074  35.07338  35.14528
 Alpha virt. eigenvalues --   46.05993
          Condensed to atoms (all electrons):
 Mulliken charges:
               1
     1  N   -0.320505
     2  C    0.039955
     3  C    0.073606
     4  C   -0.051478
     5  C    0.080183
     6  C   -0.050027
     7  C    0.134190
     8  H    0.033019
     9  H    0.046921
    10  H    0.032925
    11  C   -0.093793
    12  N   -0.389607
    13  H    0.067606
    14  H    0.124752
    15  H    0.131796
    16  P    0.222447
    17  H    0.095654
    18  Ru  -0.223847
    19  C   -0.031368
    20  C   -0.460768
    21  C    0.007311
    22  C   -0.443228
    23  C   -0.003873
    24  C   -0.018254
    25  C   -0.002179
    26  C   -0.045958
    27  C    0.001138
    28  C   -0.019961
    29  H   -0.047939
    30  H    0.118753
    31  C   -0.082326
    32  H    0.102910
    33  H    0.068114
    34  C   -0.105252
    35  H    0.050046
    36  C    0.027241
    37  O   -0.502015
    38  H    0.165967
    39  H    0.090627
    40  H    0.063901
    41  H    0.062681
    42  H    0.062031
    43  H    0.063793
    44  H    0.062550
    45  H    0.045217
    46  H    0.070606
    47  H    0.101555
    48  H    0.049540
    49  H    0.069125
    50  H    0.065250
    51  H    0.047383
    52  H    0.043612
    53  H    0.054803
    54  H    0.062950
    55  H    0.044783
    56  H    0.057385
    57  H    0.049099
    58  H    0.084978
    59  H    0.045213
    60  H    0.040248
    61  H    0.075546
    62  H    0.053561
    63  O   -0.198597
 Sum of Mulliken charges =  -0.00000
 Mulliken charges with hydrogens summed into heavy atoms:
               1
     1  N   -0.320505
     2  C    0.039955
     3  C    0.073606
     4  C   -0.018458
     5  C    0.127105
     6  C   -0.017102
     7  C    0.326548
    11  C    0.133658
    12  N   -0.389607
    16  P    0.222447
    18  Ru  -0.271786
    19  C    0.190296
    20  C   -0.460768
    21  C    0.125471
    22  C   -0.443228
    23  C    0.213505
    24  C    0.165661
    25  C    0.143618
    26  C    0.123397
    27  C    0.166256
    28  C    0.159330
    31  C    0.106049
    34  C    0.111957
    36  C    0.027241
    37  O   -0.336048
    63  O   -0.198597
 Electronic spatial extent (au):  <R**2>=           9479.7185
 Charge=             -0.0000 electrons
 Dipole moment (field-independent basis, Debye):
    X=             -0.1574    Y=              7.9514    Z=             -4.0965  Tot=              8.9460
 Quadrupole moment (field-independent basis, Debye-Ang):
   XX=           -147.4918   YY=           -173.8016   ZZ=           -189.3721
   XY=             -0.5256   XZ=             -0.7247   YZ=             -6.3624
 Traceless Quadrupole moment (field-independent basis, Debye-Ang):
   XX=             22.7301   YY=             -3.5798   ZZ=            -19.1503
   XY=             -0.5256   XZ=             -0.7247   YZ=             -6.3624
 Octapole moment (field-independent basis, Debye-Ang**2):
  XXX=            -71.4360  YYY=            108.1223  ZZZ=             -5.7870  XYY=            -42.2871
  XXY=             -0.9461  XXZ=             -3.4401  XZZ=              8.5454  YZZ=            -22.2127
  YYZ=            -13.6859  XYZ=              0.1951
 Hexadecapole moment (field-independent basis, Debye-Ang**3):
 XXXX=          -6637.6021 YYYY=          -3612.5293 ZZZZ=          -2001.4759 XXXY=            -32.1641
 XXXZ=            -27.9084 YYYX=            -54.0658 YYYZ=            -87.0030 ZZZX=             15.0566
 ZZZY=            -33.8871 XXYY=          -1675.6499 XXZZ=          -1458.4272 YYZZ=           -981.0405
 XXYZ=             19.7350 YYXZ=            -38.5624 ZZXY=             25.3975
 N-N= 3.247669127947D+03 E-N=-9.933056200565D+03  KE= 1.410538162567D+03
 1\1\GINC-NODE255\SP\RPBE1PBE TD-FC\GenECP\C20H37N2O2P1Ru1\JS1212\14-Ap
 r-2020\0\\# genecp pbe1pbe EmpiricalDispersion=GD3BJ scrf=(SMD,solvent
 =water) td=nstates=25 geom=allcheck\\Title Card Required\\0,1\N,0,-0.8
 253772184,1.4586272729,-0.0629366187\C,0,-2.0554969275,1.8809763579,0.
 2705927223\C,0,0.0860198548,2.3042194136,-0.5726795816\C,0,-2.43284316
 65,3.2077594978,0.089544359\C,0,-1.4972810845,4.1038496793,-0.41961722
 42\C,0,-0.2237189045,3.6515839061,-0.7517284961\C,0,-2.910640904,0.836
 9100674,0.9129408589\H,0,-3.4394279561,3.5299258551,0.3580527186\H,0,-
 1.760772491,5.1537171894,-0.5612236478\H,0,0.5272307397,4.3313232411,-
 1.1554521543\C,0,1.4023197812,1.7027542578,-0.9549404003\N,0,-2.677689
 9648,-0.4997575764,0.3270971601\H,0,-3.9761846622,1.1203156544,0.89310
 15313\H,0,-2.5568716512,0.751406375,1.9561001221\H,0,1.3411038321,1.40
 10477632,-2.0142930868\P,0,1.7149529342,0.1087170926,-0.022429775\H,0,
 2.220573248,2.4326166903,-0.8669717156\Ru,0,-0.4068815817,-0.580173982
 ,0.2985748001\C,0,-3.2155382156,-0.5890367444,-1.049594441\C,0,2.88647
 64447,-0.8159608013,-1.2036827688\C,0,-3.2770750216,-1.4848037333,1.25
 60022773\C,0,2.6490589712,0.6700221628,1.5359493428\C,0,2.0476055744,-
 1.4276674128,-2.3289740463\C,0,3.5777872478,-1.9540473169,-0.448827326
 9\C,0,3.9371249712,0.0996206387,-1.8400431658\C,0,1.7728305082,1.76197
 00186,2.1637059979\C,0,4.0551872501,1.2169090943,1.3042993346\C,0,2.69
 46179027,-0.5100763808,2.5105161072\H,0,-0.448140068,-0.8254653671,-1.
 2924942792\H,0,-2.6971164708,0.1825107627,-1.6365154619\C,0,-4.7231325
 382,-0.4437910254,-1.1994369747\H,0,-2.876017355,-1.5485968967,-1.4598
 561894\H,0,-2.6894407441,-1.3765982364,2.1800184271\C,0,-3.2550294788,
 -2.9147082306,0.7622257916\H,0,-4.3188616285,-1.1845531936,1.483209684
 5\C,0,0.0464563928,-2.3338966547,0.5009280476\O,0,-0.7363499864,-0.048
 159839,2.3721765197\H,0,-0.368191014,-0.7242695704,2.9508224888\H,0,-2
 .2417069611,-3.2248136263,0.4751560181\H,0,-3.9235629756,-3.0808798021
 ,-0.0959140809\H,0,-3.5928133265,-3.5765904511,1.5733702988\H,0,-4.985
 2094257,-0.5413326498,-2.2637304513\H,0,-5.0919254216,0.5374412662,-0.
 8646897678\H,0,-5.2784062935,-1.2202243708,-0.6523554968\H,0,2.7294774
 57,-1.9192106063,-3.0433111206\H,0,1.4682410871,-0.6712322807,-2.87932
 58938\H,0,1.3339659078,-2.1685908532,-1.9497709687\H,0,4.1265530026,-2
 .5802050591,-1.1720066661\H,0,2.8542152016,-2.601131811,0.0677700318\H
 ,0,4.3078098044,-1.5859789408,0.2853567201\H,0,4.5849548726,-0.5085504
 472,-2.4933720299\H,0,4.5831549645,0.5941473557,-1.1056926407\H,0,3.48
 10180523,0.8740525165,-2.4745412158\H,0,4.763261339,0.4463569857,0.967
 8384807\H,0,4.4389195984,1.6172796116,2.2580338289\H,0,4.06996356,2.04
 50774483,0.5786022659\H,0,3.3191535863,-1.3389933243,2.152477752\H,0,1
 .6796811008,-0.8882247977,2.6920634637\H,0,3.1109956555,-0.1660042667,
 3.4720723233\H,0,2.2187375411,2.0492286798,3.1314970641\H,0,0.75276433
 68,1.3749497832,2.3471262321\H,0,1.7328679185,2.6726754741,1.545347475
 2\O,0,0.3922927977,-3.4442758629,0.5961974408\\Version=ES64L-G16RevA.0
 3\State=1-A\HF=-1479.5163499\RMSD=4.711e-09\PG=C01 [X(C20H37N2O2P1Ru1)
 ]\\@


 REPARTEE - WHAT YOU THINK OF AFTER YOU BECOME A DEPARTEE.
 Job cpu time:       0 days 14 hours 25 minutes 50.2 seconds.
 Elapsed time:       0 days  0 hours 43 minutes 28.6 seconds.
 File lengths (MBytes):  RWF=   4441 Int=      0 D2E=      0 Chk=    300 Scr=      1
 Normal termination of Gaussian 16 at Tue Apr 14 19:11:14 2020.
