 Entering Gaussian System, Link 0=g16
 Initial command:
 /cluster/chemistry/gaussian/g16/l1.exe "/scratch/js1212.752228/scratch/Gau-9491.inp" -scrdir="/scratch/js1212.752228/scratch/"
 Entering Link 1 = /cluster/chemistry/gaussian/g16/l1.exe PID=      9492.
  
 Copyright (c) 1988,1990,1992,1993,1995,1998,2003,2009,2016,
            Gaussian, Inc.  All Rights Reserved.
  
 This is part of the Gaussian(R) 16 program.  It is based on
 the Gaussian(R) 09 system (copyright 2009, Gaussian, Inc.),
 the Gaussian(R) 03 system (copyright 2003, Gaussian, Inc.),
 the Gaussian(R) 98 system (copyright 1998, Gaussian, Inc.),
 the Gaussian(R) 94 system (copyright 1995, Gaussian, Inc.),
 the Gaussian 92(TM) system (copyright 1992, Gaussian, Inc.),
 the Gaussian 90(TM) system (copyright 1990, Gaussian, Inc.),
 the Gaussian 88(TM) system (copyright 1988, Gaussian, Inc.),
 the Gaussian 86(TM) system (copyright 1986, Carnegie Mellon
 University), and the Gaussian 82(TM) system (copyright 1983,
 Carnegie Mellon University). Gaussian is a federally registered
 trademark of Gaussian, Inc.
  
 This software contains proprietary and confidential information,
 including trade secrets, belonging to Gaussian, Inc.
  
 This software is provided under written license and may be
 used, copied, transmitted, or stored only in accord with that
 written license.
  
 The following legend is applicable only to US Government
 contracts under FAR:
  
                    RESTRICTED RIGHTS LEGEND
  
 Use, reproduction and disclosure by the US Government is
 subject to restrictions as set forth in subparagraphs (a)
 and (c) of the Commercial Computer Software - Restricted
 Rights clause in FAR 52.227-19.
  
 Gaussian, Inc.
 340 Quinnipiac St., Bldg. 40, Wallingford CT 06492
  
  
 ---------------------------------------------------------------
 Warning -- This program may not be used in any manner that
 competes with the business of Gaussian, Inc. or will provide
 assistance to any competitor of Gaussian, Inc.  The licensee
 of this program is prohibited from giving any competitor of
 Gaussian, Inc. access to this program.  By using this program,
 the user acknowledges that Gaussian, Inc. is engaged in the
 business of creating and licensing software in the field of
 computational chemistry and represents and warrants to the
 licensee that it is not a competitor of Gaussian, Inc. and that
 it will not use this program in any manner prohibited above.
 ---------------------------------------------------------------
  

 Cite this work as:
 Gaussian 16, Revision A.03,
 M. J. Frisch, G. W. Trucks, H. B. Schlegel, G. E. Scuseria, 
 M. A. Robb, J. R. Cheeseman, G. Scalmani, V. Barone, 
 G. A. Petersson, H. Nakatsuji, X. Li, M. Caricato, A. V. Marenich, 
 J. Bloino, B. G. Janesko, R. Gomperts, B. Mennucci, H. P. Hratchian, 
 J. V. Ortiz, A. F. Izmaylov, J. L. Sonnenberg, D. Williams-Young, 
 F. Ding, F. Lipparini, F. Egidi, J. Goings, B. Peng, A. Petrone, 
 T. Henderson, D. Ranasinghe, V. G. Zakrzewski, J. Gao, N. Rega, 
 G. Zheng, W. Liang, M. Hada, M. Ehara, K. Toyota, R. Fukuda, 
 J. Hasegawa, M. Ishida, T. Nakajima, Y. Honda, O. Kitao, H. Nakai, 
 T. Vreven, K. Throssell, J. A. Montgomery, Jr., J. E. Peralta, 
 F. Ogliaro, M. J. Bearpark, J. J. Heyd, E. N. Brothers, K. N. Kudin, 
 V. N. Staroverov, T. A. Keith, R. Kobayashi, J. Normand, 
 K. Raghavachari, A. P. Rendell, J. C. Burant, S. S. Iyengar, 
 J. Tomasi, M. Cossi, J. M. Millam, M. Klene, C. Adamo, R. Cammi, 
 J. W. Ochterski, R. L. Martin, K. Morokuma, O. Farkas, 
 J. B. Foresman, and D. J. Fox, Gaussian, Inc., Wallingford CT, 2016.
 
 ******************************************
 Gaussian 16:  ES64L-G16RevA.03 25-Dec-2016
                28-Jun-2020 
 ******************************************
 %rwf=/scratch/js1212.752228/HMe-Trans-Mono-D-0-GPOF.rwf
 %nosave
 %nprocshared=20
 Will use up to   20 processors via shared memory.
 %mem=3000MB
 %chk=/scratch/js1212.752228/HMe-Trans-Mono-D-0-GPOF.chk
 ---------------------------------------------------
 # opt freq genecp pbe1pbe EmpiricalDispersion=GD3BJ
 ---------------------------------------------------
 1/18=20,19=15,26=3,38=1/1,3;
 2/9=110,12=2,17=6,18=5,40=1/2;
 3/5=7,11=2,16=1,17=8,25=1,30=1,71=1,74=-13,124=41/1,2,3;
 4//1;
 5/5=2,38=5/2;
 6/7=2,8=2,9=2,10=2,28=1/1;
 7//1,2,3,16;
 1/18=20,19=15,26=3/3(2);
 2/9=110/2;
 99//99;
 2/9=110/2;
 3/5=7,6=1,11=2,16=1,17=8,25=1,30=1,71=1,74=-13,82=7,124=41/1,2,3;
 4/5=5,16=3,69=1/1;
 5/5=2,38=5/2;
 7//1,2,3,16;
 1/18=20,19=15,26=3/3(-5);
 2/9=110/2;
 6/7=2,8=2,9=2,10=2,19=2,28=1/1;
 99/9=1/99;
 -------------------
 Title Card Required
 -------------------
 Symbolic Z-matrix:
 Charge =  0 Multiplicity = 2
 O                    -0.60729  -0.32762   2.13706 
 O                    -0.29406  -1.59179   2.77994 
 C                    -3.23558  -1.42286   1.19263 
 H                    -2.4063    0.82036   1.83739 
 Ru                   -0.40306  -0.64584   0.07794 
 N                    -2.68196  -0.4449    0.23274 
 C                    -2.79962   0.91046   0.8107 
 C                     2.66361   0.6857    1.39125 
 C                     2.98786  -1.08366  -1.18558 
 P                     1.78598  -0.00807  -0.15417 
 H                    -3.84706   1.25313   0.85767 
 C                    -3.32297  -0.50644  -1.09993 
 C                    -0.46669  -1.34241  -1.60788 
 C                    -1.93606   1.91036   0.09217 
 N                    -0.72433   1.44206  -0.24299 
 C                     1.49998   1.54859  -1.18068 
 C                     0.20761   2.22244  -0.81205 
 C                    -2.28018   3.23402  -0.15629 
 H                    -3.27064   3.60548   0.11039 
 H                     1.39644   1.18659  -2.21609 
 H                     2.33907   2.2603   -1.16633 
 C                    -0.06943   3.56719  -1.06201 
 C                    -1.32544   4.07116  -0.73425 
 H                     0.68993   4.20635  -1.5147 
 H                    -1.56279   5.11805  -0.93256 
 O                    -0.59256  -1.84912  -2.65857 
 H                     0.00586  -1.2758    3.64525 
 H                    -2.87821   0.22341  -1.74368 
 H                    -4.36934  -0.30536  -1.00205 
 H                    -3.18476  -1.48186  -1.51749 
 H                    -3.15537  -2.40846   0.78388 
 H                    -4.26469  -1.1966    1.37876 
 H                    -2.68751  -1.37156   2.11017 
 H                     3.6725    0.94201   1.14356 
 H                     2.66308  -0.05433   2.16408 
 H                     2.14746   1.55851   1.73286 
 H                     2.47788  -1.46287  -2.04641 
 H                     3.33679  -1.90058  -0.5891 
 H                     3.82062  -0.48869  -1.49769 
 

 GradGradGradGradGradGradGradGradGradGradGradGradGradGradGradGradGradGrad
 Berny optimization.
 Initialization pass.
                           ----------------------------
                           !    Initial Parameters    !
                           ! (Angstroms and Degrees)  !
 --------------------------                            --------------------------
 ! Name  Definition              Value          Derivative Info.                !
 --------------------------------------------------------------------------------
 ! R1    R(1,2)                  1.4524         estimate D2E/DX2                !
 ! R2    R(1,5)                  2.0935         estimate D2E/DX2                !
 ! R3    R(2,27)                 0.9688         estimate D2E/DX2                !
 ! R4    R(3,6)                  1.4779         estimate D2E/DX2                !
 ! R5    R(3,31)                 1.07           estimate D2E/DX2                !
 ! R6    R(3,32)                 1.07           estimate D2E/DX2                !
 ! R7    R(3,33)                 1.07           estimate D2E/DX2                !
 ! R8    R(4,7)                  1.1031         estimate D2E/DX2                !
 ! R9    R(5,10)                 2.2918         estimate D2E/DX2                !
 ! R10   R(5,13)                 1.8252         estimate D2E/DX2                !
 ! R11   R(5,15)                 2.1367         estimate D2E/DX2                !
 ! R12   R(6,7)                  1.4781         estimate D2E/DX2                !
 ! R13   R(6,12)                 1.4801         estimate D2E/DX2                !
 ! R14   R(7,11)                 1.1031         estimate D2E/DX2                !
 ! R15   R(7,14)                 1.5039         estimate D2E/DX2                !
 ! R16   R(8,10)                 1.9078         estimate D2E/DX2                !
 ! R17   R(8,34)                 1.07           estimate D2E/DX2                !
 ! R18   R(8,35)                 1.07           estimate D2E/DX2                !
 ! R19   R(8,36)                 1.07           estimate D2E/DX2                !
 ! R20   R(9,10)                 1.9145         estimate D2E/DX2                !
 ! R21   R(9,37)                 1.07           estimate D2E/DX2                !
 ! R22   R(9,38)                 1.07           estimate D2E/DX2                !
 ! R23   R(9,39)                 1.07           estimate D2E/DX2                !
 ! R24   R(10,16)                1.8865         estimate D2E/DX2                !
 ! R25   R(12,28)                1.07           estimate D2E/DX2                !
 ! R26   R(12,29)                1.07           estimate D2E/DX2                !
 ! R27   R(12,30)                1.07           estimate D2E/DX2                !
 ! R28   R(13,26)                1.1733         estimate D2E/DX2                !
 ! R29   R(14,15)                1.3416         estimate D2E/DX2                !
 ! R30   R(14,18)                1.39           estimate D2E/DX2                !
 ! R31   R(15,17)                1.3421         estimate D2E/DX2                !
 ! R32   R(16,17)                1.5034         estimate D2E/DX2                !
 ! R33   R(16,20)                1.1017         estimate D2E/DX2                !
 ! R34   R(16,21)                1.1004         estimate D2E/DX2                !
 ! R35   R(17,22)                1.3956         estimate D2E/DX2                !
 ! R36   R(18,19)                1.0909         estimate D2E/DX2                !
 ! R37   R(18,23)                1.3951         estimate D2E/DX2                !
 ! R38   R(22,23)                1.3925         estimate D2E/DX2                !
 ! R39   R(22,24)                1.0909         estimate D2E/DX2                !
 ! R40   R(23,25)                1.0916         estimate D2E/DX2                !
 ! A1    A(2,1,5)              106.3802         estimate D2E/DX2                !
 ! A2    A(1,2,27)             100.2659         estimate D2E/DX2                !
 ! A3    A(6,3,31)             109.4705         estimate D2E/DX2                !
 ! A4    A(6,3,32)             109.4711         estimate D2E/DX2                !
 ! A5    A(6,3,33)             109.4719         estimate D2E/DX2                !
 ! A6    A(31,3,32)            109.4707         estimate D2E/DX2                !
 ! A7    A(31,3,33)            109.4718         estimate D2E/DX2                !
 ! A8    A(32,3,33)            109.4714         estimate D2E/DX2                !
 ! A9    A(1,5,10)              98.6553         estimate D2E/DX2                !
 ! A10   A(1,5,13)             164.3803         estimate D2E/DX2                !
 ! A11   A(1,5,15)              89.1137         estimate D2E/DX2                !
 ! A12   A(10,5,13)             92.6342         estimate D2E/DX2                !
 ! A13   A(10,5,15)             81.7484         estimate D2E/DX2                !
 ! A14   A(13,5,15)            103.2356         estimate D2E/DX2                !
 ! A15   A(3,6,7)              108.8431         estimate D2E/DX2                !
 ! A16   A(3,6,12)             113.2688         estimate D2E/DX2                !
 ! A17   A(7,6,12)             110.837          estimate D2E/DX2                !
 ! A18   A(4,7,6)              105.1078         estimate D2E/DX2                !
 ! A19   A(4,7,11)             108.9237         estimate D2E/DX2                !
 ! A20   A(4,7,14)             107.1114         estimate D2E/DX2                !
 ! A21   A(6,7,11)             112.1532         estimate D2E/DX2                !
 ! A22   A(6,7,14)             112.1552         estimate D2E/DX2                !
 ! A23   A(11,7,14)            111.0418         estimate D2E/DX2                !
 ! A24   A(10,8,34)            109.4713         estimate D2E/DX2                !
 ! A25   A(10,8,35)            109.4713         estimate D2E/DX2                !
 ! A26   A(10,8,36)            109.4714         estimate D2E/DX2                !
 ! A27   A(34,8,35)            109.4711         estimate D2E/DX2                !
 ! A28   A(34,8,36)            109.4716         estimate D2E/DX2                !
 ! A29   A(35,8,36)            109.4707         estimate D2E/DX2                !
 ! A30   A(10,9,37)            109.4705         estimate D2E/DX2                !
 ! A31   A(10,9,38)            109.4712         estimate D2E/DX2                !
 ! A32   A(10,9,39)            109.4718         estimate D2E/DX2                !
 ! A33   A(37,9,38)            109.471          estimate D2E/DX2                !
 ! A34   A(37,9,39)            109.4714         estimate D2E/DX2                !
 ! A35   A(38,9,39)            109.4714         estimate D2E/DX2                !
 ! A36   A(5,10,8)             117.2925         estimate D2E/DX2                !
 ! A37   A(5,10,9)             119.8576         estimate D2E/DX2                !
 ! A38   A(5,10,16)             98.0439         estimate D2E/DX2                !
 ! A39   A(8,10,9)             110.6043         estimate D2E/DX2                !
 ! A40   A(8,10,16)            102.1488         estimate D2E/DX2                !
 ! A41   A(9,10,16)            105.4039         estimate D2E/DX2                !
 ! A42   A(6,12,28)            109.4709         estimate D2E/DX2                !
 ! A43   A(6,12,29)            109.4718         estimate D2E/DX2                !
 ! A44   A(6,12,30)            109.4713         estimate D2E/DX2                !
 ! A45   A(28,12,29)           109.4712         estimate D2E/DX2                !
 ! A46   A(28,12,30)           109.4713         estimate D2E/DX2                !
 ! A47   A(29,12,30)           109.4708         estimate D2E/DX2                !
 ! A48   A(7,14,15)            113.9471         estimate D2E/DX2                !
 ! A49   A(7,14,18)            125.1943         estimate D2E/DX2                !
 ! A50   A(15,14,18)           120.7523         estimate D2E/DX2                !
 ! A51   A(5,15,14)            116.0632         estimate D2E/DX2                !
 ! A52   A(5,15,17)            121.8328         estimate D2E/DX2                !
 ! A53   A(14,15,17)           122.0129         estimate D2E/DX2                !
 ! A54   A(10,16,17)           111.5162         estimate D2E/DX2                !
 ! A55   A(10,16,20)           104.7443         estimate D2E/DX2                !
 ! A56   A(10,16,21)           114.2686         estimate D2E/DX2                !
 ! A57   A(17,16,20)           107.2728         estimate D2E/DX2                !
 ! A58   A(17,16,21)           111.2487         estimate D2E/DX2                !
 ! A59   A(20,16,21)           107.2437         estimate D2E/DX2                !
 ! A60   A(15,17,16)           116.1201         estimate D2E/DX2                !
 ! A61   A(15,17,22)           119.8926         estimate D2E/DX2                !
 ! A62   A(16,17,22)           123.9615         estimate D2E/DX2                !
 ! A63   A(14,18,19)           120.3518         estimate D2E/DX2                !
 ! A64   A(14,18,23)           118.4259         estimate D2E/DX2                !
 ! A65   A(19,18,23)           121.2165         estimate D2E/DX2                !
 ! A66   A(17,22,23)           119.0551         estimate D2E/DX2                !
 ! A67   A(17,22,24)           120.0469         estimate D2E/DX2                !
 ! A68   A(23,22,24)           120.8965         estimate D2E/DX2                !
 ! A69   A(18,23,22)           119.8424         estimate D2E/DX2                !
 ! A70   A(18,23,25)           120.1272         estimate D2E/DX2                !
 ! A71   A(22,23,25)           120.0301         estimate D2E/DX2                !
 ! A72   L(5,13,26,9,-1)       184.2215         estimate D2E/DX2                !
 ! A73   L(5,13,26,9,-2)       176.7166         estimate D2E/DX2                !
 ! D1    D(5,1,2,27)           153.8761         estimate D2E/DX2                !
 ! D2    D(2,1,5,10)           -92.3331         estimate D2E/DX2                !
 ! D3    D(2,1,5,13)            43.4855         estimate D2E/DX2                !
 ! D4    D(2,1,5,15)          -173.8484         estimate D2E/DX2                !
 ! D5    D(31,3,6,7)           179.9999         estimate D2E/DX2                !
 ! D6    D(31,3,6,12)           56.2283         estimate D2E/DX2                !
 ! D7    D(32,3,6,7)            60.0011         estimate D2E/DX2                !
 ! D8    D(32,3,6,12)          -63.7706         estimate D2E/DX2                !
 ! D9    D(33,3,6,7)           -59.9994         estimate D2E/DX2                !
 ! D10   D(33,3,6,12)          176.2289         estimate D2E/DX2                !
 ! D11   D(1,5,10,8)            -4.272          estimate D2E/DX2                !
 ! D12   D(1,5,10,9)           134.5609         estimate D2E/DX2                !
 ! D13   D(1,5,10,16)         -112.457          estimate D2E/DX2                !
 ! D14   D(13,5,10,8)         -173.4448         estimate D2E/DX2                !
 ! D15   D(13,5,10,9)          -34.6119         estimate D2E/DX2                !
 ! D16   D(13,5,10,16)          78.3702         estimate D2E/DX2                !
 ! D17   D(15,5,10,8)           83.5568         estimate D2E/DX2                !
 ! D18   D(15,5,10,9)         -137.6103         estimate D2E/DX2                !
 ! D19   D(15,5,10,16)         -24.6282         estimate D2E/DX2                !
 ! D20   D(1,5,15,14)          -64.9661         estimate D2E/DX2                !
 ! D21   D(1,5,15,17)          118.4384         estimate D2E/DX2                !
 ! D22   D(10,5,15,14)        -163.8437         estimate D2E/DX2                !
 ! D23   D(10,5,15,17)          19.5607         estimate D2E/DX2                !
 ! D24   D(13,5,15,14)         105.3772         estimate D2E/DX2                !
 ! D25   D(13,5,15,17)         -71.2184         estimate D2E/DX2                !
 ! D26   D(3,6,7,4)             48.189          estimate D2E/DX2                !
 ! D27   D(3,6,7,11)           -70.0147         estimate D2E/DX2                !
 ! D28   D(3,6,7,14)           164.2282         estimate D2E/DX2                !
 ! D29   D(12,6,7,4)           173.3948         estimate D2E/DX2                !
 ! D30   D(12,6,7,11)           55.1911         estimate D2E/DX2                !
 ! D31   D(12,6,7,14)          -70.566          estimate D2E/DX2                !
 ! D32   D(3,6,12,28)          179.9999         estimate D2E/DX2                !
 ! D33   D(3,6,12,29)           59.9997         estimate D2E/DX2                !
 ! D34   D(3,6,12,30)          -60.0002         estimate D2E/DX2                !
 ! D35   D(7,6,12,28)           57.3268         estimate D2E/DX2                !
 ! D36   D(7,6,12,29)          -62.6734         estimate D2E/DX2                !
 ! D37   D(7,6,12,30)          177.3267         estimate D2E/DX2                !
 ! D38   D(4,7,14,15)           74.2251         estimate D2E/DX2                !
 ! D39   D(4,7,14,18)         -102.0324         estimate D2E/DX2                !
 ! D40   D(6,7,14,15)          -40.597          estimate D2E/DX2                !
 ! D41   D(6,7,14,18)          143.1455         estimate D2E/DX2                !
 ! D42   D(11,7,14,15)        -166.9584         estimate D2E/DX2                !
 ! D43   D(11,7,14,18)          16.7841         estimate D2E/DX2                !
 ! D44   D(34,8,10,5)          179.9998         estimate D2E/DX2                !
 ! D45   D(34,8,10,9)           37.5818         estimate D2E/DX2                !
 ! D46   D(34,8,10,16)         -74.2084         estimate D2E/DX2                !
 ! D47   D(35,8,10,5)           59.9998         estimate D2E/DX2                !
 ! D48   D(35,8,10,9)          -82.4181         estimate D2E/DX2                !
 ! D49   D(35,8,10,16)         165.7916         estimate D2E/DX2                !
 ! D50   D(36,8,10,5)          -59.9997         estimate D2E/DX2                !
 ! D51   D(36,8,10,9)          157.5824         estimate D2E/DX2                !
 ! D52   D(36,8,10,16)          45.7922         estimate D2E/DX2                !
 ! D53   D(37,9,10,5)           38.6787         estimate D2E/DX2                !
 ! D54   D(37,9,10,8)          179.9998         estimate D2E/DX2                !
 ! D55   D(37,9,10,16)         -70.3184         estimate D2E/DX2                !
 ! D56   D(38,9,10,5)          -81.3206         estimate D2E/DX2                !
 ! D57   D(38,9,10,8)           60.0005         estimate D2E/DX2                !
 ! D58   D(38,9,10,16)         169.6822         estimate D2E/DX2                !
 ! D59   D(39,9,10,5)          158.6788         estimate D2E/DX2                !
 ! D60   D(39,9,10,8)          -60.0001         estimate D2E/DX2                !
 ! D61   D(39,9,10,16)          49.6817         estimate D2E/DX2                !
 ! D62   D(5,10,16,17)          33.0053         estimate D2E/DX2                !
 ! D63   D(5,10,16,20)         -82.7024         estimate D2E/DX2                !
 ! D64   D(5,10,16,21)         160.2393         estimate D2E/DX2                !
 ! D65   D(8,10,16,17)         -87.2677         estimate D2E/DX2                !
 ! D66   D(8,10,16,20)         157.0245         estimate D2E/DX2                !
 ! D67   D(8,10,16,21)          39.9663         estimate D2E/DX2                !
 ! D68   D(9,10,16,17)         157.0933         estimate D2E/DX2                !
 ! D69   D(9,10,16,20)          41.3856         estimate D2E/DX2                !
 ! D70   D(9,10,16,21)         -75.6727         estimate D2E/DX2                !
 ! D71   D(7,14,15,5)            7.7804         estimate D2E/DX2                !
 ! D72   D(7,14,15,17)        -175.6307         estimate D2E/DX2                !
 ! D73   D(18,14,15,5)        -175.7781         estimate D2E/DX2                !
 ! D74   D(18,14,15,17)          0.8108         estimate D2E/DX2                !
 ! D75   D(7,14,18,19)          -4.5581         estimate D2E/DX2                !
 ! D76   D(7,14,18,23)         174.581          estimate D2E/DX2                !
 ! D77   D(15,14,18,19)        179.4222         estimate D2E/DX2                !
 ! D78   D(15,14,18,23)         -1.4387         estimate D2E/DX2                !
 ! D79   D(5,15,17,16)          -1.3488         estimate D2E/DX2                !
 ! D80   D(5,15,17,22)         176.8736         estimate D2E/DX2                !
 ! D81   D(14,15,17,16)       -177.7418         estimate D2E/DX2                !
 ! D82   D(14,15,17,22)          0.4806         estimate D2E/DX2                !
 ! D83   D(10,16,17,15)        -23.3818         estimate D2E/DX2                !
 ! D84   D(10,16,17,22)        158.4763         estimate D2E/DX2                !
 ! D85   D(20,16,17,15)         90.7649         estimate D2E/DX2                !
 ! D86   D(20,16,17,22)        -87.377          estimate D2E/DX2                !
 ! D87   D(21,16,17,15)       -152.235          estimate D2E/DX2                !
 ! D88   D(21,16,17,22)         29.6231         estimate D2E/DX2                !
 ! D89   D(15,17,22,23)         -1.0924         estimate D2E/DX2                !
 ! D90   D(15,17,22,24)        179.3485         estimate D2E/DX2                !
 ! D91   D(16,17,22,23)        176.9832         estimate D2E/DX2                !
 ! D92   D(16,17,22,24)         -2.5759         estimate D2E/DX2                !
 ! D93   D(14,18,23,22)          0.8005         estimate D2E/DX2                !
 ! D94   D(14,18,23,25)       -179.4094         estimate D2E/DX2                !
 ! D95   D(19,18,23,22)        179.9318         estimate D2E/DX2                !
 ! D96   D(19,18,23,25)         -0.2781         estimate D2E/DX2                !
 ! D97   D(17,22,23,18)          0.4342         estimate D2E/DX2                !
 ! D98   D(17,22,23,25)       -179.3562         estimate D2E/DX2                !
 ! D99   D(24,22,23,18)        179.9894         estimate D2E/DX2                !
 ! D100  D(24,22,23,25)          0.1991         estimate D2E/DX2                !
 --------------------------------------------------------------------------------
 Trust Radius=3.00D-01 FncErr=1.00D-07 GrdErr=1.00D-06 EigMax=2.50D+02 EigMin=1.00D-04
 Number of steps in this run=    223 maximum allowed number of steps=    234.
 GradGradGradGradGradGradGradGradGradGradGradGradGradGradGradGradGradGrad

                          Input orientation:                          
 ---------------------------------------------------------------------
 Center     Atomic      Atomic             Coordinates (Angstroms)
 Number     Number       Type             X           Y           Z
 ---------------------------------------------------------------------
      1          8           0       -0.607290   -0.327620    2.137060
      2          8           0       -0.294060   -1.591790    2.779940
      3          6           0       -3.235580   -1.422860    1.192630
      4          1           0       -2.406300    0.820360    1.837390
      5         44           0       -0.403060   -0.645840    0.077940
      6          7           0       -2.681960   -0.444900    0.232740
      7          6           0       -2.799620    0.910460    0.810700
      8          6           0        2.663610    0.685700    1.391250
      9          6           0        2.987860   -1.083660   -1.185580
     10         15           0        1.785980   -0.008070   -0.154170
     11          1           0       -3.847060    1.253130    0.857670
     12          6           0       -3.322970   -0.506440   -1.099930
     13          6           0       -0.466690   -1.342410   -1.607880
     14          6           0       -1.936060    1.910360    0.092170
     15          7           0       -0.724330    1.442060   -0.242990
     16          6           0        1.499980    1.548590   -1.180680
     17          6           0        0.207610    2.222440   -0.812050
     18          6           0       -2.280180    3.234020   -0.156290
     19          1           0       -3.270640    3.605480    0.110390
     20          1           0        1.396440    1.186590   -2.216090
     21          1           0        2.339070    2.260300   -1.166330
     22          6           0       -0.069430    3.567190   -1.062010
     23          6           0       -1.325440    4.071160   -0.734250
     24          1           0        0.689930    4.206350   -1.514700
     25          1           0       -1.562790    5.118050   -0.932560
     26          8           0       -0.592560   -1.849120   -2.658570
     27          1           0        0.005860   -1.275800    3.645250
     28          1           0       -2.878210    0.223410   -1.743680
     29          1           0       -4.369340   -0.305360   -1.002050
     30          1           0       -3.184760   -1.481860   -1.517490
     31          1           0       -3.155370   -2.408460    0.783880
     32          1           0       -4.264690   -1.196600    1.378760
     33          1           0       -2.687510   -1.371560    2.110170
     34          1           0        3.672500    0.942010    1.143560
     35          1           0        2.663080   -0.054330    2.164080
     36          1           0        2.147460    1.558510    1.732860
     37          1           0        2.477880   -1.462870   -2.046410
     38          1           0        3.336790   -1.900580   -0.589100
     39          1           0        3.820620   -0.488690   -1.497690
 ---------------------------------------------------------------------
                    Distance matrix (angstroms):
                    1          2          3          4          5
     1  O    0.000000
     2  O    1.452423   0.000000
     3  C    2.999901   3.346734   0.000000
     4  H    2.155017   3.341919   2.476985   0.000000
     5  Ru   2.093549   2.864875   3.141570   3.042758   0.000000
     6  N    2.818589   3.675004   1.477934   2.061983   2.292973
     7  C    2.845766   4.051789   2.404228   1.103137   2.950001
     8  C    3.504545   3.982867   6.267848   5.091283   3.591970
     9  C    4.953447   5.172479   6.670993   6.469977   3.645066
    10  P    3.328602   3.929852   5.388095   4.714639   2.291838
    11  H    3.825143   4.940901   2.765326   1.795252   4.009389
    12  C    4.229066   5.040404   2.470485   3.350900   3.151616
    13  C    3.882543   4.398290   3.939046   4.506611   1.825171
    14  C    3.309949   4.710130   3.743009   2.110691   2.980679
    15  N    2.968182   4.304356   4.071259   2.746546   2.136712
    16  C    4.355244   5.363495   6.073520   4.989798   3.165629
    17  C    3.982979   5.263308   5.400233   3.977171   3.064642
    18  C    4.554481   5.987868   4.941549   3.133117   4.316452
    19  H    5.164310   6.557297   5.143605   3.389175   5.128137
    20  H    5.025702   5.961334   6.315395   5.570068   3.443628
    21  H    5.127451   6.111057   7.085696   5.797784   4.184870
    22  C    5.068815   6.436312   6.325228   4.627370   4.377261
    23  C    5.301832   6.744055   6.127459   4.283607   4.874477
    24  H    5.964479   7.282211   7.377484   5.682260   5.222536
    25  H    6.323833   7.772663   7.078006   5.182111   5.965611
    26  O    5.031227   5.452771   4.690308   5.534386   2.995376
    27  H    1.884048   0.968795   4.067420   3.671616   3.645513
    28  H    4.529995   5.516876   3.385238   3.661026   3.193785
    29  H    4.899748   5.706685   2.711243   3.630866   4.124764
    30  H    4.618588   5.180361   2.711238   4.142636   3.313937
    31  H    3.557204   3.583057   1.070008   3.477969   3.343709
    32  H    3.834934   4.229111   1.070003   2.780662   4.111892
    33  H    2.327627   2.495134   1.069996   2.226657   3.142505
    34  H    4.573358   4.983120   7.301821   6.119478   4.501889
    35  H    3.281880   3.389357   6.132763   5.154651   3.755407
    36  H    3.362962   4.120896   6.177179   4.614382   3.755406
    37  H    5.320572   5.567219   6.567846   6.644716   3.671541
    38  H    5.045980   4.962747   6.826333   6.802533   4.000724
    39  H    5.730946   6.037014   7.609235   7.184073   4.510740
                    6          7          8          9         10
     6  N    0.000000
     7  C    1.478135   0.000000
     8  C    5.585295   5.498585   0.000000
     9  C    5.879329   6.438678   3.142583   0.000000
    10  P    4.505886   4.775186   1.907845   1.914475   0.000000
    11  H    2.152046   1.103068   6.557096   7.506770   5.860511
    12  C    1.480098   2.435571   6.592899   6.337752   5.219598
    13  C    3.016758   4.045679   4.786104   3.489872   2.994705
    14  C    2.474546   1.503935   4.934001   5.902693   4.194596
    15  N    2.760299   2.387402   3.836790   4.587820   2.900418
    16  C    4.843592   4.781147   2.951853   3.023665   1.886454
    17  C    4.068895   3.660334   3.639785   4.335852   2.810557
    18  C    3.721186   2.569790   5.773203   6.888690   5.200462
    19  H    4.094764   2.824080   6.736545   7.926941   6.220703
    20  H    5.029103   5.181180   3.856101   2.957804   2.414636
    21  H    5.872499   5.668937   3.020912   3.406372   2.544775
    22  C    4.959693   4.244902   4.668081   5.567109   4.129068
    23  C    4.813524   3.814460   5.647266   6.736499   5.163094
    24  H    6.004774   5.333604   4.973423   5.776938   4.562204
    25  H    5.792830   4.719377   6.550441   7.696339   6.172298
    26  O    3.833680   4.951993   5.781782   3.946522   3.913941
    27  H    4.422668   4.548090   3.998954   5.680331   4.383099
    28  H    2.095564   2.646332   6.383829   6.035784   4.933031
    29  H    2.095574   2.688550   7.494830   7.400529   6.220550
    30  H    2.095566   3.360357   6.882043   6.194349   5.360873
    31  H    2.093667   3.338039   6.618403   6.585829   5.573038
    32  H    2.093669   2.628464   7.179453   7.693379   6.353982
    33  H    2.093675   2.628461   5.777859   6.569222   5.196004
    34  H    6.567517   6.480751   1.070002   3.161798   2.479055
    35  H    5.696672   5.709952   1.070005   3.519265   2.479058
    36  H    5.439422   5.073849   1.070003   4.025497   2.479057
    37  H    5.731905   6.453509   4.058122   1.070004   2.485104
    38  H    6.246581   6.893251   3.326229   1.069999   2.485110
    39  H    6.729031   7.149396   3.326235   1.069996   2.485116
                   11         12         13         14         15
    11  H    0.000000
    12  C    2.683832   0.000000
    13  C    4.923684   3.019138   0.000000
    14  C    2.160986   3.030766   3.953445   0.000000
    15  N    3.316412   3.359156   3.111684   1.341613   0.000000
    16  C    5.730009   5.243140   3.522523   3.682037   2.416230
    17  C    4.490866   4.471538   3.714321   2.347409   1.342138
    18  C    2.721609   3.996112   5.132209   1.390046   2.374722
    19  H    2.534608   4.286665   5.941061   2.157514   3.359904
    20  H    6.078381   5.136633   3.199533   4.117944   2.907929
    21  H    6.586287   6.302218   4.587676   4.470237   3.302498
    22  C    4.828098   5.213581   4.955801   2.749823   2.369782
    23  C    4.102934   5.007821   5.550443   2.392673   2.741320
    24  H    5.910493   6.203692   5.668791   3.840498   3.355395
    25  H    4.833262   5.895857   6.587491   3.388020   3.832939
    26  O    5.707860   3.418667   1.173264   4.848222   4.084637
    27  H    5.386194   5.847201   5.274762   5.152383   4.799828
    28  H    2.960746   1.070003   2.878483   2.665294   2.894197
    29  H    2.481980   1.070002   4.083281   3.468081   4.112876
    30  H    3.682417   1.070001   2.723145   3.956945   4.028322
    31  H    3.727079   2.682258   3.753129   4.540637   4.668075
    32  H    2.539119   2.739902   4.833848   4.090358   4.703908
    33  H    3.130864   3.384817   4.330911   3.925303   4.160276
    34  H    7.531422   7.487847   5.470091   5.787838   4.637314
    35  H    6.767428   6.833078   5.067770   5.413401   4.416754
    36  H    6.065763   6.497255   5.139033   4.414838   3.487796
    37  H    7.470957   5.954867   2.979482   5.952736   4.684559
    38  H    7.977890   6.823267   3.976924   6.541433   5.271217
    39  H    8.208226   7.154677   4.372872   6.436028   5.094962
                   16         17         18         19         20
    16  C    0.000000
    17  C    1.503390   0.000000
    18  C    4.263761   2.764492   0.000000
    19  H    5.353174   3.855116   1.090922   0.000000
    20  H    1.101743   2.111310   4.685326   5.748493   0.000000
    21  H    1.100368   2.161034   4.827606   5.908331   1.772964
    22  C    2.559663   1.395559   2.412208   3.409360   3.024555
    23  C    3.813877   2.402928   1.395124   2.171193   4.233819
    24  H    2.798471   2.159224   3.407676   4.322971   3.179631
    25  H    4.709901   3.396085   2.160281   2.508459   5.085358
    26  O    4.255269   4.541752   5.911665   6.677718   3.656152
    27  H    5.787847   5.669736   6.325833   6.859853   6.507871
    28  H    4.608863   3.792933   3.455607   3.876851   4.407212
    29  H    6.157756   5.232050   4.196083   4.211809   6.078160
    30  H    5.589620   5.072244   4.991057   5.342134   5.347528
    31  H    6.417945   5.941537   5.786835   6.052632   6.530174
    32  H    6.878824   6.040774   5.091665   5.065261   7.116947
    33  H    6.073882   5.462410   5.149187   5.395377   6.476056
    34  H    3.238808   4.179638   6.509786   7.507910   4.065405
    35  H    3.887103   4.479996   6.374416   7.267798   4.725479
    36  H    2.984635   3.268086   5.097079   6.014840   4.036900
    37  H    3.282479   4.501031   6.947839   7.961497   2.866695
    38  H    3.952292   5.180808   7.622453   8.629259   3.992828
    39  H    3.104251   4.568826   7.271704   8.344706   3.033036
                   21         22         23         24         25
    21  H    0.000000
    22  C    2.742210   0.000000
    23  C    4.110297   1.392470   0.000000
    24  H    2.574516   1.090908   2.165432   0.000000
    25  H    4.842096   2.156861   1.091623   2.498966   0.000000
    26  O    5.263893   5.670898   6.268160   6.294596   7.243060
    27  H    6.410864   6.754148   7.038633   7.559564   8.018624
    28  H    5.630476   4.419817   4.270272   5.352370   5.132811
    29  H    7.184175   5.787008   5.337693   6.798128   6.106957
    30  H    6.681300   5.950265   5.908178   6.882511   6.821418
    31  H    7.469238   6.974147   6.902089   7.989087   7.882311
    32  H    7.876375   6.800828   6.391658   7.881132   7.246880
    33  H    7.013727   6.427155   6.290402   7.460554   7.255221
    34  H    2.975150   5.075249   6.188469   5.159262   7.011266
    35  H    4.068676   5.566837   6.428707   5.964909   7.362111
    36  H    2.989068   4.093983   4.945814   4.436451   5.791437
    37  H    3.828290   5.723577   6.841966   5.968210   7.802319
    38  H    4.317588   6.459295   7.577542   6.719911   8.566505
    39  H    3.140340   5.636707   6.917876   5.643129   7.793331
                   26         27         28         29         30
    26  O    0.000000
    27  H    6.358062   0.000000
    28  H    3.218167   6.293334   0.000000
    29  H    4.403558   6.456123   1.747307   0.000000
    30  H    2.855949   6.072594   1.747307   1.747301   0.000000
    31  H    4.327969   4.411772   3.659524   3.014349   2.481079
    32  H    5.496395   4.835375   3.699782   2.544311   3.104172
    33  H    5.230465   3.101594   4.175219   3.694760   3.663242
    34  H    6.359036   4.961994   7.194744   8.416102   7.744569
    35  H    6.089205   3.278212   6.786282   7.716367   7.056134
    36  H    6.197121   4.034476   6.255092   7.309065   6.945588
    37  H    3.154605   6.208129   5.623423   7.022460   5.687320
    38  H    4.441300   5.423575   6.668629   7.880336   6.600595
    39  H    4.761782   6.451493   6.741062   8.206992   7.075460
                   31         32         33         34         35
    31  H    0.000000
    32  H    1.747306   0.000000
    33  H    1.747312   1.747303   0.000000
    34  H    7.614120   8.223622   6.836422   0.000000
    35  H    6.426604   7.065091   5.510609   1.747307   0.000000
    36  H    6.690099   6.987967   5.666093   1.747310   1.747303
    37  H    6.374809   7.567360   6.630743   4.169709   4.443705
    38  H    6.655160   7.883563   6.622546   3.345912   3.382680
    39  H    7.586535   8.610885   7.493455   3.007498   3.864858
                   36         37         38         39
    36  H    0.000000
    37  H    4.849824   0.000000
    38  H    4.332587   1.747303   0.000000
    39  H    4.174559   1.747304   1.747301   0.000000
 Stoichiometry    C12H20N2O3PRu(2)
 Framework group  C1[X(C12H20N2O3PRu)]
 Deg. of freedom   111
 Full point group                 C1      NOp   1
 Largest Abelian subgroup         C1      NOp   1
 Largest concise Abelian subgroup C1      NOp   1
                         Standard orientation:                         
 ---------------------------------------------------------------------
 Center     Atomic      Atomic             Coordinates (Angstroms)
 Number     Number       Type             X           Y           Z
 ---------------------------------------------------------------------
      1          8           0        0.293674   -1.121882   -1.914417
      2          8           0       -0.139282   -2.466871   -2.250699
      3          6           0        2.621597   -2.222055   -0.375001
      4          1           0        2.205094   -0.155646   -1.675747
      5         44           0       -0.159841   -0.844621    0.110527
      6          7           0        2.127463   -0.962718    0.220139
      7          6           0        2.503233    0.162012   -0.662279
      8          6           0       -2.846986    0.433086   -1.901676
      9          6           0       -3.686901   -0.521925    0.972053
     10         15           0       -2.241160    0.085179   -0.126343
     11          1           0        3.589520    0.353440   -0.652455
     12          6           0        2.616144   -0.736285    1.598765
     13          6           0       -0.369190   -1.061411    1.910645
     14          6           0        1.731510    1.413467   -0.345851
     15          7           0        0.436135    1.199333   -0.070028
     16          6           0       -1.829505    1.816660    0.499135
     17          6           0       -0.420763    2.208640    0.149880
     18          6           0        2.243021    2.704917   -0.398186
     19          1           0        3.299435    2.871097   -0.613792
     20          1           0       -1.884840    1.738817    1.596731
     21          1           0       -2.547218    2.591536    0.190485
     22          6           0        0.027760    3.528541    0.084519
     23          6           0        1.371286    3.773547   -0.187294
     24          1           0       -0.668869    4.351114    0.252343
     25          1           0        1.741413    4.799548   -0.231681
     26          8           0       -0.425696   -1.276010    3.062731
     27          1           0       -0.300950   -2.363843   -3.200336
     28          1           0        2.223524    0.187622    1.969104
     29          1           0        3.685298   -0.693793    1.595734
     30          1           0        2.292888   -1.538989    2.228110
     31          1           0        2.354755   -3.043695    0.256362
     32          1           0        3.686321   -2.177357   -0.471282
     33          1           0        2.181474   -2.356859   -1.340926
     34          1           0       -3.825864    0.863746   -1.866532
     35          1           0       -2.880043   -0.483202   -2.453251
     36          1           0       -2.174822    1.113827   -2.380939
     37          1           0       -3.327584   -0.711291    1.961972
     38          1           0       -4.092788   -1.422826    0.561526
     39          1           0       -4.448337    0.229017    1.006565
 ---------------------------------------------------------------------
 Rotational constants (GHZ):           0.3507470           0.3265896           0.2506587
 General basis read from cards:  (5D, 7F)
 ======================================================================================================
                                       Pseudopotential Parameters
 ======================================================================================================
  Center     Atomic      Valence      Angular      Power
  Number     Number     Electrons     Momentum     of R      Exponent        Coefficient   SO-Coeffient
 ======================================================================================================
    1          8
                                   No pseudopotential on this center.
    2          8
                                   No pseudopotential on this center.
    3          6
                                   No pseudopotential on this center.
    4          1
                                   No pseudopotential on this center.
    5         44           16
                                      G and up 
                                                     2        1.0000000        0.00000000    0.00000000
                                      S - G
                                                     2       11.1052690      209.82297100    0.00000000
                                                     2        5.4147450       30.65472600    0.00000000
                                      P - G
                                                     2        9.7712710      146.33618200    0.00000000
                                                     2        5.0739910       24.12787700    0.00000000
                                      D - G
                                                     2        7.6714230       67.51589700    0.00000000
                                                     2        4.1365650        9.87010400    0.00000000
                                      F - G
                                                     2       11.3600000      -28.34061600    0.00000000
                                                     2        5.6800000       -4.94462900    0.00000000
    6          7
                                   No pseudopotential on this center.
    7          6
                                   No pseudopotential on this center.
    8          6
                                   No pseudopotential on this center.
    9          6
                                   No pseudopotential on this center.
   10         15
                                   No pseudopotential on this center.
   11          1
                                   No pseudopotential on this center.
   12          6
                                   No pseudopotential on this center.
   13          6
                                   No pseudopotential on this center.
   14          6
                                   No pseudopotential on this center.
   15          7
                                   No pseudopotential on this center.
   16          6
                                   No pseudopotential on this center.
   17          6
                                   No pseudopotential on this center.
   18          6
                                   No pseudopotential on this center.
   19          1
                                   No pseudopotential on this center.
   20          1
                                   No pseudopotential on this center.
   21          1
                                   No pseudopotential on this center.
   22          6
                                   No pseudopotential on this center.
   23          6
                                   No pseudopotential on this center.
   24          1
                                   No pseudopotential on this center.
   25          1
                                   No pseudopotential on this center.
   26          8
                                   No pseudopotential on this center.
   27          1
                                   No pseudopotential on this center.
   28          1
                                   No pseudopotential on this center.
   29          1
                                   No pseudopotential on this center.
   30          1
                                   No pseudopotential on this center.
   31          1
                                   No pseudopotential on this center.
   32          1
                                   No pseudopotential on this center.
   33          1
                                   No pseudopotential on this center.
   34          1
                                   No pseudopotential on this center.
   35          1
                                   No pseudopotential on this center.
   36          1
                                   No pseudopotential on this center.
   37          1
                                   No pseudopotential on this center.
   38          1
                                   No pseudopotential on this center.
   39          1
                                   No pseudopotential on this center.
 ======================================================================================================
 There are   413 symmetry adapted cartesian basis functions of A   symmetry.
 There are   392 symmetry adapted basis functions of A   symmetry.
   392 basis functions,   837 primitive gaussians,   413 cartesian basis functions
    81 alpha electrons       80 beta electrons
       nuclear repulsion energy      1953.8423602325 Hartrees.
 NAtoms=   39 NActive=   39 NUniq=   39 SFac= 1.00D+00 NAtFMM=   60 NAOKFM=F Big=F
 Integral buffers will be    131072 words long.
 Raffenetti 2 integral format.
 Two-electron integral symmetry is turned on.
 Nuclear repulsion after empirical dispersion term =     1953.7864689024 Hartrees.
 One-electron integrals computed using PRISM.
   1 Symmetry operations used in ECPInt.
 ECPInt:  NShTT=   17020 NPrTT=  126709 LenC2=   16432 LenP2D=   69151.
 LDataN:  DoStor=T MaxTD1= 6 Len=  172
 NBasis=   392 RedAO= T EigKep=  4.62D-04  NBF=   392
 NBsUse=   392 1.00D-06 EigRej= -1.00D+00 NBFU=   392
 Defaulting to unpruned grid for atomic number  44.
 ExpMin= 1.60D-02 ExpMax= 9.48D+04 ExpMxC= 3.24D+03 IAcc=3 IRadAn=         5 AccDes= 0.00D+00
 Harris functional with IExCor= 1009 and IRadAn=       5 diagonalized for initial guess.
 HarFok:  IExCor= 1009 AccDes= 0.00D+00 IRadAn=         5 IDoV= 1 UseB2=F ITyADJ=14
 ICtDFT=  3500011 ScaDFX=  1.000000  1.000000  1.000000  1.000000
 Defaulting to unpruned grid for atomic number  44.
 FoFCou: FMM=F IPFlag=           0 FMFlag=      100000 FMFlg1=           0
         NFxFlg=           0 DoJE=T BraDBF=F KetDBF=T FulRan=T
         wScrn=  0.000000 ICntrl=       500 IOpCl=  0 I1Cent=   200000004 NGrid=           0
         NMat0=    1 NMatS0=      1 NMatT0=    0 NMatD0=    1 NMtDS0=    0 NMtDT0=    0
 Petite list used in FoFCou.
 Initial guess <Sx>= 0.0000 <Sy>= 0.0000 <Sz>= 0.5000 <S**2>= 0.7500 S= 0.5000
 Requested convergence on RMS density matrix=1.00D-08 within 128 cycles.
 Requested convergence on MAX density matrix=1.00D-06.
 Requested convergence on             energy=1.00D-06.
 No special actions if energy rises.
 Defaulting to unpruned grid for atomic number  44.
 Defaulting to unpruned grid for atomic number  44.
 Defaulting to unpruned grid for atomic number  44.
 Defaulting to unpruned grid for atomic number  44.
 Defaulting to unpruned grid for atomic number  44.
 Defaulting to unpruned grid for atomic number  44.
 Defaulting to unpruned grid for atomic number  44.
 Defaulting to unpruned grid for atomic number  44.
 Defaulting to unpruned grid for atomic number  44.
 Defaulting to unpruned grid for atomic number  44.
 Defaulting to unpruned grid for atomic number  44.
 Defaulting to unpruned grid for atomic number  44.
 Defaulting to unpruned grid for atomic number  44.
 Defaulting to unpruned grid for atomic number  44.
 Defaulting to unpruned grid for atomic number  44.
 Defaulting to unpruned grid for atomic number  44.
 Defaulting to unpruned grid for atomic number  44.
 Defaulting to unpruned grid for atomic number  44.
 Defaulting to unpruned grid for atomic number  44.
 Defaulting to unpruned grid for atomic number  44.
 EnCoef did     4 forward-backward iterations
 Restarting incremental Fock formation.
 SCF Done:  E(UPBE1PBE) =  -1239.76355411     A.U. after   24 cycles
            NFock= 24  Conv=0.56D-08     -V/T= 2.0567
 <Sx>= 0.0000 <Sy>= 0.0000 <Sz>= 0.5000 <S**2>= 0.7562 S= 0.5031
 <L.S>= 0.000000000000E+00
 Annihilation of the first spin contaminant:
 S**2 before annihilation     0.7562,   after     0.7500

 **********************************************************************

            Population analysis using the SCF density.

 **********************************************************************

 Orbital symmetries:
 Alpha Orbitals:
       Occupied  (A) (A) (A) (A) (A) (A) (A) (A) (A) (A) (A) (A)
                 (A) (A) (A) (A) (A) (A) (A) (A) (A) (A) (A) (A)
                 (A) (A) (A) (A) (A) (A) (A) (A) (A) (A) (A) (A)
                 (A) (A) (A) (A) (A) (A) (A) (A) (A) (A) (A) (A)
                 (A) (A) (A) (A) (A) (A) (A) (A) (A) (A) (A) (A)
                 (A) (A) (A) (A) (A) (A) (A) (A) (A) (A) (A) (A)
                 (A) (A) (A) (A) (A) (A) (A) (A) (A)
       Virtual   (A) (A) (A) (A) (A) (A) (A) (A) (A) (A) (A) (A)
                 (A) (A) (A) (A) (A) (A) (A) (A) (A) (A) (A) (A)
                 (A) (A) (A) (A) (A) (A) (A) (A) (A) (A) (A) (A)
                 (A) (A) (A) (A) (A) (A) (A) (A) (A) (A) (A) (A)
                 (A) (A) (A) (A) (A) (A) (A) (A) (A) (A) (A) (A)
                 (A) (A) (A) (A) (A) (A) (A) (A) (A) (A) (A) (A)
                 (A) (A) (A) (A) (A) (A) (A) (A) (A) (A) (A) (A)
                 (A) (A) (A) (A) (A) (A) (A) (A) (A) (A) (A) (A)
                 (A) (A) (A) (A) (A) (A) (A) (A) (A) (A) (A) (A)
                 (A) (A) (A) (A) (A) (A) (A) (A) (A) (A) (A) (A)
                 (A) (A) (A) (A) (A) (A) (A) (A) (A) (A) (A) (A)
                 (A) (A) (A) (A) (A) (A) (A) (A) (A) (A) (A) (A)
                 (A) (A) (A) (A) (A) (A) (A) (A) (A) (A) (A) (A)
                 (A) (A) (A) (A) (A) (A) (A) (A) (A) (A) (A) (A)
                 (A) (A) (A) (A) (A) (A) (A) (A) (A) (A) (A) (A)
                 (A) (A) (A) (A) (A) (A) (A) (A) (A) (A) (A) (A)
                 (A) (A) (A) (A) (A) (A) (A) (A) (A) (A) (A) (A)
                 (A) (A) (A) (A) (A) (A) (A) (A) (A) (A) (A) (A)
                 (A) (A) (A) (A) (A) (A) (A) (A) (A) (A) (A) (A)
                 (A) (A) (A) (A) (A) (A) (A) (A) (A) (A) (A) (A)
                 (A) (A) (A) (A) (A) (A) (A) (A) (A) (A) (A) (A)
                 (A) (A) (A) (A) (A) (A) (A) (A) (A) (A) (A) (A)
                 (A) (A) (A) (A) (A) (A) (A) (A) (A) (A) (A) (A)
                 (A) (A) (A) (A) (A) (A) (A) (A) (A) (A) (A) (A)
                 (A) (A) (A) (A) (A) (A) (A) (A) (A) (A) (A) (A)
                 (A) (A) (A) (A) (A) (A) (A) (A) (A) (A) (A)
 Beta  Orbitals:
       Occupied  (A) (A) (A) (A) (A) (A) (A) (A) (A) (A) (A) (A)
                 (A) (A) (A) (A) (A) (A) (A) (A) (A) (A) (A) (A)
                 (A) (A) (A) (A) (A) (A) (A) (A) (A) (A) (A) (A)
                 (A) (A) (A) (A) (A) (A) (A) (A) (A) (A) (A) (A)
                 (A) (A) (A) (A) (A) (A) (A) (A) (A) (A) (A) (A)
                 (A) (A) (A) (A) (A) (A) (A) (A) (A) (A) (A) (A)
                 (A) (A) (A) (A) (A) (A) (A) (A)
       Virtual   (A) (A) (A) (A) (A) (A) (A) (A) (A) (A) (A) (A)
                 (A) (A) (A) (A) (A) (A) (A) (A) (A) (A) (A) (A)
                 (A) (A) (A) (A) (A) (A) (A) (A) (A) (A) (A) (A)
                 (A) (A) (A) (A) (A) (A) (A) (A) (A) (A) (A) (A)
                 (A) (A) (A) (A) (A) (A) (A) (A) (A) (A) (A) (A)
                 (A) (A) (A) (A) (A) (A) (A) (A) (A) (A) (A) (A)
                 (A) (A) (A) (A) (A) (A) (A) (A) (A) (A) (A) (A)
                 (A) (A) (A) (A) (A) (A) (A) (A) (A) (A) (A) (A)
                 (A) (A) (A) (A) (A) (A) (A) (A) (A) (A) (A) (A)
                 (A) (A) (A) (A) (A) (A) (A) (A) (A) (A) (A) (A)
                 (A) (A) (A) (A) (A) (A) (A) (A) (A) (A) (A) (A)
                 (A) (A) (A) (A) (A) (A) (A) (A) (A) (A) (A) (A)
                 (A) (A) (A) (A) (A) (A) (A) (A) (A) (A) (A) (A)
                 (A) (A) (A) (A) (A) (A) (A) (A) (A) (A) (A) (A)
                 (A) (A) (A) (A) (A) (A) (A) (A) (A) (A) (A) (A)
                 (A) (A) (A) (A) (A) (A) (A) (A) (A) (A) (A) (A)
                 (A) (A) (A) (A) (A) (A) (A) (A) (A) (A) (A) (A)
                 (A) (A) (A) (A) (A) (A) (A) (A) (A) (A) (A) (A)
                 (A) (A) (A) (A) (A) (A) (A) (A) (A) (A) (A) (A)
                 (A) (A) (A) (A) (A) (A) (A) (A) (A) (A) (A) (A)
                 (A) (A) (A) (A) (A) (A) (A) (A) (A) (A) (A) (A)
                 (A) (A) (A) (A) (A) (A) (A) (A) (A) (A) (A) (A)
                 (A) (A) (A) (A) (A) (A) (A) (A) (A) (A) (A) (A)
                 (A) (A) (A) (A) (A) (A) (A) (A) (A) (A) (A) (A)
                 (A) (A) (A) (A) (A) (A) (A) (A) (A) (A) (A) (A)
                 (A) (A) (A) (A) (A) (A) (A) (A) (A) (A) (A) (A)
 The electronic state is 2-A.
 Alpha  occ. eigenvalues --  -77.26302 -19.22241 -19.20138 -19.16352 -14.43603
 Alpha  occ. eigenvalues --  -14.43459 -10.30079 -10.29454 -10.28108 -10.27002
 Alpha  occ. eigenvalues --  -10.26793 -10.26121 -10.26058 -10.25838 -10.24861
 Alpha  occ. eigenvalues --  -10.23765 -10.23666 -10.23325  -6.64000  -4.77670
 Alpha  occ. eigenvalues --   -4.77615  -4.77276  -3.01410  -1.85536  -1.84474
 Alpha  occ. eigenvalues --   -1.84091  -1.08416  -1.04661  -1.00960  -0.96439
 Alpha  occ. eigenvalues --   -0.84739  -0.84352  -0.79714  -0.78221  -0.74921
 Alpha  occ. eigenvalues --   -0.73816  -0.72637  -0.72348  -0.66341  -0.65015
 Alpha  occ. eigenvalues --   -0.61802  -0.57376  -0.54439  -0.53078  -0.52423
 Alpha  occ. eigenvalues --   -0.50320  -0.49767  -0.48960  -0.47162  -0.46506
 Alpha  occ. eigenvalues --   -0.45784  -0.45008  -0.44289  -0.43866  -0.43531
 Alpha  occ. eigenvalues --   -0.42877  -0.42433  -0.42266  -0.41684  -0.41241
 Alpha  occ. eigenvalues --   -0.40333  -0.40081  -0.39502  -0.38542  -0.38352
 Alpha  occ. eigenvalues --   -0.37984  -0.36608  -0.36055  -0.35465  -0.34413
 Alpha  occ. eigenvalues --   -0.33320  -0.32354  -0.31915  -0.27958  -0.26879
 Alpha  occ. eigenvalues --   -0.25195  -0.22405  -0.19945  -0.19473  -0.16930
 Alpha  occ. eigenvalues --   -0.13641
 Alpha virt. eigenvalues --   -0.04239  -0.02669   0.00714   0.01392   0.02524
 Alpha virt. eigenvalues --    0.02901   0.04736   0.05509   0.06485   0.07252
 Alpha virt. eigenvalues --    0.08068   0.08424   0.08864   0.09836   0.10065
 Alpha virt. eigenvalues --    0.10756   0.11458   0.11809   0.12539   0.13207
 Alpha virt. eigenvalues --    0.13522   0.13703   0.14289   0.14943   0.15344
 Alpha virt. eigenvalues --    0.15693   0.16442   0.16726   0.17242   0.17736
 Alpha virt. eigenvalues --    0.18197   0.18389   0.18854   0.20465   0.20741
 Alpha virt. eigenvalues --    0.21238   0.21586   0.22303   0.22715   0.23614
 Alpha virt. eigenvalues --    0.24545   0.24768   0.25072   0.25694   0.26914
 Alpha virt. eigenvalues --    0.28184   0.30465   0.30773   0.31716   0.32222
 Alpha virt. eigenvalues --    0.33226   0.35485   0.35764   0.38635   0.39866
 Alpha virt. eigenvalues --    0.40771   0.41807   0.44266   0.44746   0.45581
 Alpha virt. eigenvalues --    0.46833   0.47516   0.48471   0.49617   0.49732
 Alpha virt. eigenvalues --    0.50490   0.50921   0.51713   0.52321   0.54393
 Alpha virt. eigenvalues --    0.55512   0.55738   0.56418   0.57024   0.57838
 Alpha virt. eigenvalues --    0.58824   0.59284   0.59425   0.60550   0.61360
 Alpha virt. eigenvalues --    0.61889   0.62229   0.62657   0.63442   0.63691
 Alpha virt. eigenvalues --    0.63898   0.65454   0.65667   0.65985   0.66872
 Alpha virt. eigenvalues --    0.67249   0.67871   0.68134   0.68534   0.68767
 Alpha virt. eigenvalues --    0.69475   0.70039   0.70230   0.70827   0.71288
 Alpha virt. eigenvalues --    0.72641   0.73134   0.73803   0.74277   0.74838
 Alpha virt. eigenvalues --    0.75621   0.76589   0.76944   0.78117   0.79237
 Alpha virt. eigenvalues --    0.79703   0.80723   0.81429   0.82463   0.83509
 Alpha virt. eigenvalues --    0.84479   0.86297   0.86901   0.87218   0.88243
 Alpha virt. eigenvalues --    0.88908   0.89653   0.90179   0.91275   0.92170
 Alpha virt. eigenvalues --    0.92755   0.94116   0.95698   0.96603   0.96741
 Alpha virt. eigenvalues --    0.98443   0.99451   1.01039   1.02680   1.03306
 Alpha virt. eigenvalues --    1.03856   1.05183   1.05758   1.06928   1.07419
 Alpha virt. eigenvalues --    1.09154   1.09671   1.11264   1.11805   1.12955
 Alpha virt. eigenvalues --    1.13605   1.14380   1.15466   1.17813   1.18294
 Alpha virt. eigenvalues --    1.19942   1.20460   1.22376   1.24102   1.24801
 Alpha virt. eigenvalues --    1.25694   1.26024   1.26604   1.29428   1.30469
 Alpha virt. eigenvalues --    1.31875   1.33250   1.33605   1.35138   1.36939
 Alpha virt. eigenvalues --    1.37884   1.38597   1.39499   1.40490   1.42306
 Alpha virt. eigenvalues --    1.42655   1.43732   1.44979   1.45473   1.46382
 Alpha virt. eigenvalues --    1.48386   1.48735   1.49171   1.50670   1.51467
 Alpha virt. eigenvalues --    1.51913   1.53166   1.54047   1.55137   1.55907
 Alpha virt. eigenvalues --    1.56366   1.57800   1.59543   1.60880   1.61292
 Alpha virt. eigenvalues --    1.63588   1.64137   1.64524   1.64903   1.65164
 Alpha virt. eigenvalues --    1.66467   1.66758   1.67023   1.68612   1.69207
 Alpha virt. eigenvalues --    1.69615   1.70487   1.71403   1.72040   1.72871
 Alpha virt. eigenvalues --    1.73401   1.74239   1.74542   1.74938   1.76580
 Alpha virt. eigenvalues --    1.76942   1.77466   1.78231   1.80229   1.80349
 Alpha virt. eigenvalues --    1.81266   1.82368   1.82952   1.83762   1.84959
 Alpha virt. eigenvalues --    1.85616   1.85919   1.87668   1.88031   1.89350
 Alpha virt. eigenvalues --    1.91606   1.91883   1.92857   1.93572   1.94692
 Alpha virt. eigenvalues --    1.96185   1.97566   1.97921   1.99963   2.01033
 Alpha virt. eigenvalues --    2.01377   2.01969   2.04032   2.04954   2.07954
 Alpha virt. eigenvalues --    2.08910   2.10807   2.11668   2.13064   2.15086
 Alpha virt. eigenvalues --    2.16186   2.16682   2.17313   2.18504   2.18878
 Alpha virt. eigenvalues --    2.19618   2.21076   2.21322   2.23103   2.24514
 Alpha virt. eigenvalues --    2.26176   2.29769   2.32846   2.39862   2.40010
 Alpha virt. eigenvalues --    2.41015   2.43317   2.44311   2.45422   2.46981
 Alpha virt. eigenvalues --    2.48429   2.49034   2.50779   2.51856   2.51936
 Alpha virt. eigenvalues --    2.52947   2.53108   2.54464   2.54737   2.55277
 Alpha virt. eigenvalues --    2.55909   2.56757   2.57006   2.57537   2.58677
 Alpha virt. eigenvalues --    2.59101   2.59586   2.63469   2.66240   2.66660
 Alpha virt. eigenvalues --    2.67342   2.69379   2.70618   2.71756   2.72535
 Alpha virt. eigenvalues --    2.74975   2.76304   2.78986   2.81436   2.83634
 Alpha virt. eigenvalues --    2.91369   2.95584   2.98571   2.99714   3.08999
 Alpha virt. eigenvalues --    3.13366   3.14479   3.20848   3.49302   3.58934
 Alpha virt. eigenvalues --    3.68379   3.92111  34.68900  34.91919  34.99953
 Alpha virt. eigenvalues --   45.95028
  Beta  occ. eigenvalues --  -77.26311 -19.22192 -19.20077 -19.16340 -14.43465
  Beta  occ. eigenvalues --  -14.43371 -10.30083 -10.29452 -10.28140 -10.26996
  Beta  occ. eigenvalues --  -10.26785 -10.26117 -10.26052 -10.25836 -10.24860
  Beta  occ. eigenvalues --  -10.23764 -10.23664 -10.23332  -6.64010  -4.77674
  Beta  occ. eigenvalues --   -4.77623  -4.77298  -2.98848  -1.83452  -1.82288
  Beta  occ. eigenvalues --   -1.79633  -1.08314  -1.04555  -1.00727  -0.96423
  Beta  occ. eigenvalues --   -0.84666  -0.84306  -0.79642  -0.78206  -0.74895
  Beta  occ. eigenvalues --   -0.73809  -0.72622  -0.72353  -0.66275  -0.64944
  Beta  occ. eigenvalues --   -0.61755  -0.57362  -0.54317  -0.52913  -0.52377
  Beta  occ. eigenvalues --   -0.50292  -0.49724  -0.48938  -0.47130  -0.46483
  Beta  occ. eigenvalues --   -0.45635  -0.44813  -0.44183  -0.43767  -0.43487
  Beta  occ. eigenvalues --   -0.42818  -0.42403  -0.41991  -0.41612  -0.41180
  Beta  occ. eigenvalues --   -0.40126  -0.39926  -0.39452  -0.38516  -0.38334
  Beta  occ. eigenvalues --   -0.37825  -0.36524  -0.35922  -0.35434  -0.33537
  Beta  occ. eigenvalues --   -0.33206  -0.32147  -0.31241  -0.27938  -0.26825
  Beta  occ. eigenvalues --   -0.24690  -0.21530  -0.18865  -0.18399  -0.16527
  Beta virt. eigenvalues --   -0.04362  -0.02671  -0.00689   0.00931   0.02519
  Beta virt. eigenvalues --    0.02654   0.03437   0.05121   0.05734   0.06891
  Beta virt. eigenvalues --    0.07711   0.08222   0.08654   0.09014   0.09910
  Beta virt. eigenvalues --    0.10186   0.10799   0.11561   0.11895   0.12685
  Beta virt. eigenvalues --    0.13444   0.13657   0.13793   0.14363   0.15025
  Beta virt. eigenvalues --    0.15555   0.15802   0.16615   0.16846   0.17364
  Beta virt. eigenvalues --    0.17855   0.18428   0.18638   0.18947   0.20658
  Beta virt. eigenvalues --    0.21011   0.21275   0.21722   0.22434   0.22860
  Beta virt. eigenvalues --    0.23855   0.24601   0.24920   0.25246   0.25884
  Beta virt. eigenvalues --    0.27052   0.28503   0.30544   0.30935   0.32012
  Beta virt. eigenvalues --    0.32463   0.33356   0.35621   0.36057   0.38839
  Beta virt. eigenvalues --    0.39951   0.40811   0.41947   0.44360   0.44920
  Beta virt. eigenvalues --    0.45681   0.46926   0.47558   0.48651   0.49714
  Beta virt. eigenvalues --    0.49889   0.50543   0.51164   0.51893   0.52481
  Beta virt. eigenvalues --    0.54506   0.55662   0.55797   0.56510   0.57151
  Beta virt. eigenvalues --    0.58027   0.58893   0.59434   0.59524   0.60662
  Beta virt. eigenvalues --    0.61502   0.62001   0.62508   0.62952   0.63525
  Beta virt. eigenvalues --    0.63757   0.64143   0.65491   0.65717   0.66108
  Beta virt. eigenvalues --    0.67309   0.67404   0.68054   0.68188   0.68625
  Beta virt. eigenvalues --    0.68825   0.69634   0.70210   0.70398   0.70940
  Beta virt. eigenvalues --    0.71390   0.72689   0.73251   0.73888   0.74364
  Beta virt. eigenvalues --    0.74994   0.75765   0.77073   0.77339   0.78279
  Beta virt. eigenvalues --    0.79363   0.79865   0.80884   0.81475   0.82527
  Beta virt. eigenvalues --    0.83590   0.84602   0.86562   0.86996   0.87483
  Beta virt. eigenvalues --    0.88406   0.89087   0.89876   0.90369   0.91361
  Beta virt. eigenvalues --    0.92297   0.92845   0.94167   0.95753   0.96677
  Beta virt. eigenvalues --    0.96829   0.98635   0.99609   1.01080   1.02744
  Beta virt. eigenvalues --    1.03346   1.03890   1.05346   1.05841   1.07034
  Beta virt. eigenvalues --    1.07484   1.09280   1.09779   1.11360   1.11958
  Beta virt. eigenvalues --    1.13043   1.13740   1.14436   1.15512   1.17970
  Beta virt. eigenvalues --    1.18402   1.20067   1.20557   1.22524   1.24395
  Beta virt. eigenvalues --    1.24896   1.25855   1.26130   1.26778   1.29540
  Beta virt. eigenvalues --    1.30560   1.32055   1.33311   1.33765   1.35282
  Beta virt. eigenvalues --    1.37010   1.37946   1.38742   1.39578   1.40556
  Beta virt. eigenvalues --    1.42350   1.42725   1.43796   1.45006   1.45505
  Beta virt. eigenvalues --    1.46446   1.48418   1.48794   1.49255   1.50743
  Beta virt. eigenvalues --    1.51525   1.52007   1.53254   1.54086   1.55174
  Beta virt. eigenvalues --    1.55943   1.56430   1.57827   1.59572   1.60953
  Beta virt. eigenvalues --    1.61340   1.63613   1.64181   1.64567   1.64951
  Beta virt. eigenvalues --    1.65225   1.66507   1.66771   1.67049   1.68656
  Beta virt. eigenvalues --    1.69242   1.69645   1.70537   1.71428   1.72080
  Beta virt. eigenvalues --    1.72885   1.73430   1.74279   1.74566   1.74967
  Beta virt. eigenvalues --    1.76605   1.76958   1.77499   1.78265   1.80292
  Beta virt. eigenvalues --    1.80393   1.81303   1.82409   1.83013   1.83818
  Beta virt. eigenvalues --    1.85064   1.85685   1.85979   1.87720   1.88087
  Beta virt. eigenvalues --    1.89415   1.91677   1.91965   1.92897   1.93613
  Beta virt. eigenvalues --    1.94735   1.96240   1.97642   1.97954   2.00020
  Beta virt. eigenvalues --    2.01086   2.01507   2.02012   2.04119   2.05004
  Beta virt. eigenvalues --    2.08011   2.08958   2.10837   2.11727   2.13143
  Beta virt. eigenvalues --    2.15135   2.16226   2.16752   2.17385   2.18583
  Beta virt. eigenvalues --    2.18892   2.19675   2.21092   2.21336   2.23140
  Beta virt. eigenvalues --    2.24559   2.26213   2.29835   2.32932   2.39949
  Beta virt. eigenvalues --    2.40035   2.41055   2.43523   2.44403   2.45446
  Beta virt. eigenvalues --    2.47025   2.48496   2.49208   2.50878   2.51881
  Beta virt. eigenvalues --    2.51962   2.52959   2.53122   2.54469   2.54759
  Beta virt. eigenvalues --    2.55298   2.55926   2.56766   2.57026   2.57593
  Beta virt. eigenvalues --    2.58703   2.59120   2.59615   2.63536   2.66437
  Beta virt. eigenvalues --    2.66827   2.67458   2.69626   2.70885   2.71787
  Beta virt. eigenvalues --    2.72582   2.75038   2.76319   2.79016   2.81488
  Beta virt. eigenvalues --    2.83709   2.91527   2.95789   2.98672   2.99903
  Beta virt. eigenvalues --    3.09053   3.13546   3.14512   3.20908   3.49385
  Beta virt. eigenvalues --    3.59010   3.68471   3.92165  34.69912  34.92624
  Beta virt. eigenvalues --   35.00681  45.95690
          Condensed to atoms (all electrons):
               1          2          3          4          5          6
     1  O    8.150598   0.085140  -0.006941   0.028737   0.233009  -0.011879
     2  O    0.085140   7.696077  -0.004504  -0.003198   0.055039   0.000284
     3  C   -0.006941  -0.004504   4.524545  -0.003265  -0.023193   0.339188
     4  H    0.028737  -0.003198  -0.003265   0.568789  -0.010125  -0.024453
     5  Ru   0.233009   0.055039  -0.023193  -0.010125  15.328190   0.096574
     6  N   -0.011879   0.000284   0.339188  -0.024453   0.096574   6.552487
     7  C   -0.013101   0.000505  -0.040092   0.357797  -0.070993   0.309494
     8  C    0.003282  -0.000660  -0.000001  -0.000049  -0.018243   0.000020
     9  C    0.000013   0.000017  -0.000000  -0.000001  -0.024380   0.000007
    10  P   -0.005855  -0.002526   0.000010   0.000570   0.052082  -0.004646
    11  H    0.000594  -0.000030  -0.005086  -0.030250   0.011201  -0.027803
    12  C    0.000120   0.000007  -0.043791   0.006951  -0.014176   0.341449
    13  C   -0.004824   0.000513   0.000043   0.000336   0.295656  -0.001252
    14  C   -0.004420   0.000044   0.006040  -0.005035  -0.083947  -0.021151
    15  N   -0.003264   0.000118   0.000399  -0.004247   0.123375  -0.013028
    16  C   -0.000038   0.000001   0.000001  -0.000011  -0.076379   0.000086
    17  C   -0.000752   0.000006   0.000040   0.000321  -0.094926  -0.000640
    18  C   -0.000078   0.000000  -0.000348  -0.002650   0.002345   0.003705
    19  H   -0.000004  -0.000000  -0.000030  -0.000251   0.002272   0.000161
    20  H   -0.000015   0.000001  -0.000000   0.000013   0.002184  -0.000002
    21  H    0.000000  -0.000000  -0.000000   0.000003   0.002510  -0.000001
    22  C    0.000003  -0.000000  -0.000001   0.000128   0.001247   0.000000
    23  C   -0.000001   0.000000   0.000007  -0.000146  -0.005240  -0.000125
    24  H    0.000000  -0.000000   0.000000  -0.000001   0.001683   0.000000
    25  H    0.000000   0.000000  -0.000000   0.000002   0.000984   0.000002
    26  O    0.000001  -0.000000   0.000038  -0.000001   0.007974  -0.000264
    27  H   -0.029409   0.308165   0.000109  -0.000222  -0.031102  -0.000014
    28  H   -0.000015   0.000002   0.006249   0.000003  -0.002379  -0.019037
    29  H   -0.000014   0.000000  -0.004456  -0.000392   0.008968  -0.028976
    30  H   -0.000010   0.000012  -0.000744  -0.000342  -0.009401  -0.017686
    31  H    0.000831  -0.001463   0.397454   0.001792  -0.001456  -0.021688
    32  H    0.000228  -0.000102   0.384672  -0.003972   0.009659  -0.029054
    33  H    0.006573   0.006586   0.407666   0.003038  -0.001514  -0.018339
    34  H    0.000170  -0.000032  -0.000000  -0.000002   0.004616  -0.000000
    35  H   -0.001254   0.001153   0.000000   0.000011  -0.001229   0.000000
    36  H   -0.000871  -0.000199  -0.000001  -0.000018  -0.000320  -0.000002
    37  H   -0.000000   0.000006  -0.000000   0.000000  -0.006415   0.000003
    38  H    0.000008  -0.000030  -0.000000  -0.000000  -0.000508   0.000000
    39  H    0.000000  -0.000000   0.000000   0.000000   0.002144  -0.000000
               7          8          9         10         11         12
     1  O   -0.013101   0.003282   0.000013  -0.005855   0.000594   0.000120
     2  O    0.000505  -0.000660   0.000017  -0.002526  -0.000030   0.000007
     3  C   -0.040092  -0.000001  -0.000000   0.000010  -0.005086  -0.043791
     4  H    0.357797  -0.000049  -0.000001   0.000570  -0.030250   0.006951
     5  Ru  -0.070993  -0.018243  -0.024380   0.052082   0.011201  -0.014176
     6  N    0.309494   0.000020   0.000007  -0.004646  -0.027803   0.341449
     7  C    4.757409  -0.000003   0.000001   0.000276   0.369861  -0.058392
     8  C   -0.000003   4.710441  -0.023499   0.358712   0.000000   0.000000
     9  C    0.000001  -0.023499   4.707385   0.372202   0.000000  -0.000000
    10  P    0.000276   0.358712   0.372202  14.035574  -0.000064   0.000215
    11  H    0.369861   0.000000   0.000000  -0.000064   0.674970  -0.007339
    12  C   -0.058392   0.000000  -0.000000   0.000215  -0.007339   4.528465
    13  C    0.001662   0.000752  -0.006215   0.004837   0.000013  -0.005806
    14  C    0.414147  -0.000092   0.000003   0.001839  -0.025650  -0.001161
    15  N   -0.059261  -0.000229   0.000238  -0.017471   0.004824  -0.001817
    16  C   -0.000675  -0.034997  -0.023657   0.345300   0.000019  -0.000008
    17  C    0.007451  -0.000843   0.001327  -0.035154   0.000058  -0.000126
    18  C   -0.077737  -0.000000  -0.000000  -0.000129  -0.007550  -0.000458
    19  H   -0.010206   0.000000  -0.000000  -0.000002   0.002823  -0.000013
    20  H    0.000036   0.003210  -0.002875  -0.016888   0.000000  -0.000009
    21  H    0.000010  -0.002455  -0.001028  -0.019016  -0.000001   0.000000
    22  C    0.000775  -0.000093  -0.000050   0.005756  -0.000150  -0.000008
    23  C    0.005180  -0.000001   0.000001  -0.000260   0.000790  -0.000009
    24  H    0.000064  -0.000013  -0.000006   0.000020  -0.000003  -0.000000
    25  H   -0.000287  -0.000000  -0.000000   0.000008   0.000005  -0.000001
    26  O    0.000001  -0.000002  -0.000398  -0.003084   0.000000  -0.001335
    27  H    0.000052  -0.000322  -0.000004   0.001109   0.000004  -0.000001
    28  H   -0.005070  -0.000001  -0.000002   0.000143  -0.003570   0.405220
    29  H   -0.004500   0.000000   0.000000  -0.000031   0.009256   0.385563
    30  H    0.007854   0.000000  -0.000001   0.000143  -0.000106   0.404787
    31  H    0.005421  -0.000001  -0.000000   0.000108  -0.000498  -0.001427
    32  H   -0.005673   0.000000   0.000000  -0.000020   0.008059  -0.005884
    33  H   -0.002842  -0.000004  -0.000001   0.000309  -0.001856   0.005402
    34  H   -0.000000   0.373730  -0.004251  -0.022086  -0.000000   0.000000
    35  H    0.000002   0.401701   0.000518  -0.015068   0.000000  -0.000000
    36  H   -0.000008   0.395335   0.001701  -0.009378  -0.000001  -0.000000
    37  H   -0.000000   0.001960   0.401121  -0.009326   0.000000   0.000001
    38  H   -0.000000  -0.000149   0.398861  -0.017743  -0.000000  -0.000000
    39  H   -0.000000  -0.002244   0.373431  -0.020333  -0.000000   0.000000
              13         14         15         16         17         18
     1  O   -0.004824  -0.004420  -0.003264  -0.000038  -0.000752  -0.000078
     2  O    0.000513   0.000044   0.000118   0.000001   0.000006   0.000000
     3  C    0.000043   0.006040   0.000399   0.000001   0.000040  -0.000348
     4  H    0.000336  -0.005035  -0.004247  -0.000011   0.000321  -0.002650
     5  Ru   0.295656  -0.083947   0.123375  -0.076379  -0.094926   0.002345
     6  N   -0.001252  -0.021151  -0.013028   0.000086  -0.000640   0.003705
     7  C    0.001662   0.414147  -0.059261  -0.000675   0.007451  -0.077737
     8  C    0.000752  -0.000092  -0.000229  -0.034997  -0.000843  -0.000000
     9  C   -0.006215   0.000003   0.000238  -0.023657   0.001327  -0.000000
    10  P    0.004837   0.001839  -0.017471   0.345300  -0.035154  -0.000129
    11  H    0.000013  -0.025650   0.004824   0.000019   0.000058  -0.007550
    12  C   -0.005806  -0.001161  -0.001817  -0.000008  -0.000126  -0.000458
    13  C    5.132938  -0.002115   0.005521  -0.001901  -0.002831  -0.000026
    14  C   -0.002115   4.872960   0.449831   0.007758  -0.066365   0.503701
    15  N    0.005521   0.449831   6.507597  -0.069279   0.482574  -0.030467
    16  C   -0.001901   0.007758  -0.069279   4.906377   0.420045   0.000981
    17  C   -0.002831  -0.066365   0.482574   0.420045   4.814074  -0.055201
    18  C   -0.000026   0.503701  -0.030467   0.000981  -0.055201   4.852806
    19  H   -0.000003  -0.038492   0.005338   0.000072   0.000592   0.402416
    20  H    0.001917  -0.000522  -0.003113   0.362368  -0.006583   0.000057
    21  H    0.000250   0.000088   0.003748   0.363595  -0.016621  -0.000107
    22  C    0.000017  -0.055996  -0.025362  -0.074051   0.514385   0.008324
    23  C    0.000034  -0.023480  -0.039380   0.004529  -0.028224   0.483259
    24  H   -0.000010   0.000658   0.005459  -0.009024  -0.039962   0.008698
    25  H   -0.000000   0.008599  -0.000100  -0.000294   0.008807  -0.045110
    26  O    0.627077   0.000018  -0.000121  -0.000047   0.000065   0.000000
    27  H   -0.000081  -0.000044  -0.000018  -0.000003   0.000003  -0.000002
    28  H   -0.002337   0.009376  -0.000708  -0.000052   0.000021   0.000435
    29  H    0.001081  -0.003001   0.000171   0.000002  -0.000020   0.000012
    30  H    0.002835  -0.000348   0.000054  -0.000007   0.000027  -0.000054
    31  H    0.000590  -0.000538   0.000017  -0.000000   0.000000   0.000006
    32  H    0.000039   0.000743  -0.000057   0.000000  -0.000001  -0.000001
    33  H    0.000006   0.000627   0.000278  -0.000002   0.000022  -0.000045
    34  H   -0.000023   0.000009   0.000007  -0.002140  -0.000205   0.000001
    35  H   -0.000009  -0.000008  -0.000001   0.002524   0.000050  -0.000000
    36  H   -0.000023  -0.000068   0.000311  -0.001693   0.002147  -0.000028
    37  H    0.004037  -0.000001  -0.000001  -0.001899   0.000156   0.000000
    38  H   -0.000082   0.000000  -0.000001   0.001906  -0.000074   0.000000
    39  H    0.000306   0.000001  -0.000011  -0.002991   0.000097   0.000000
              19         20         21         22         23         24
     1  O   -0.000004  -0.000015   0.000000   0.000003  -0.000001   0.000000
     2  O   -0.000000   0.000001  -0.000000  -0.000000   0.000000  -0.000000
     3  C   -0.000030  -0.000000  -0.000000  -0.000001   0.000007   0.000000
     4  H   -0.000251   0.000013   0.000003   0.000128  -0.000146  -0.000001
     5  Ru   0.002272   0.002184   0.002510   0.001247  -0.005240   0.001683
     6  N    0.000161  -0.000002  -0.000001   0.000000  -0.000125   0.000000
     7  C   -0.010206   0.000036   0.000010   0.000775   0.005180   0.000064
     8  C    0.000000   0.003210  -0.002455  -0.000093  -0.000001  -0.000013
     9  C   -0.000000  -0.002875  -0.001028  -0.000050   0.000001  -0.000006
    10  P   -0.000002  -0.016888  -0.019016   0.005756  -0.000260   0.000020
    11  H    0.002823   0.000000  -0.000001  -0.000150   0.000790  -0.000003
    12  C   -0.000013  -0.000009   0.000000  -0.000008  -0.000009  -0.000000
    13  C   -0.000003   0.001917   0.000250   0.000017   0.000034  -0.000010
    14  C   -0.038492  -0.000522   0.000088  -0.055996  -0.023480   0.000658
    15  N    0.005338  -0.003113   0.003748  -0.025362  -0.039380   0.005459
    16  C    0.000072   0.362368   0.363595  -0.074051   0.004529  -0.009024
    17  C    0.000592  -0.006583  -0.016621   0.514385  -0.028224  -0.039962
    18  C    0.402416   0.000057  -0.000107   0.008324   0.483259   0.008698
    19  H    0.677755  -0.000001  -0.000002   0.008711  -0.043753  -0.000188
    20  H   -0.000001   0.580943  -0.025198  -0.001547   0.000049   0.000079
    21  H   -0.000002  -0.025198   0.640617  -0.005563   0.000736   0.001855
    22  C    0.008711  -0.001547  -0.005563   4.824817   0.493748   0.402291
    23  C   -0.043753   0.000049   0.000736   0.493748   4.710569  -0.041868
    24  H   -0.000188   0.000079   0.001855   0.402291  -0.041868   0.679581
    25  H   -0.012287   0.000002  -0.000004  -0.044958   0.402615  -0.012725
    26  O    0.000000  -0.000604  -0.000012  -0.000001  -0.000000   0.000000
    27  H   -0.000000   0.000000  -0.000000  -0.000000   0.000000   0.000000
    28  H   -0.000135  -0.000024  -0.000000   0.000013   0.000029  -0.000002
[...]
 -0.00390824,0.00591658,-0.00541334,0.00000705,-0.00000762,0.00000106,-
 0.00001238,-0.00000177,-0.00002578,0.00001889,0.00000786,-0.00000032,0
 .00000968,-0.00000850,-0.00001490,-0.00004085,0.00010758,-0.00003294,-
 0.00101687,-0.00040540,-0.00206281,0.00023920,-0.00011486,-0.00015602,
 -0.00003463,0.00001859,0.00001743,-0.00000124,0.00000084,-0.00000506,-
 0.00007614,0.00064254,-0.00043857,0.00014261,0.00009353,-0.00017093,-0
 .00008058,0.00011264,0.00009229,0.00002059,0.00001933,0.00001827,-0.00
 000395,0.00000308,-0.00003041,-0.00001138,0.00000480,-0.00000329,-0.00
 000497,-0.00002606,0.00000781,0.00012022,0.00017295,0.00005582,-0.0000
 0406,-0.00000012,0.00000152,0.00000690,-0.00000222,0.00000161,0.000001
 87,0.00000085,0.00000392,-0.00000458,0.00000163,-0.00000148,0.00001692
 ,0.00000593,-0.00000925,0.00000263,-0.00000024,0.00000488,0.00855288,-
 0.01279866,0.00798821,-0.08648949,0.23105347,-0.00030810,0.00013783,-0
 .00025457,0.00006004,0.00022435,-0.00019144,0.00007468,-0.00002350,-0.
 00000694,-0.00003281,-0.00001054,-0.00000731,-0.00019244,-0.00134843,0
 .00093826,0.00010287,0.00016120,-0.00013352,-0.00001396,0.00006270,0.0
 0003633,-0.05158399,0.11818732,-0.11013012,0.00089864,0.00053674,0.001
 48420,-0.00594929,0.01740454,-0.00963236,0.00000316,-0.00001177,-0.000
 00154,-0.00001184,0.00000108,-0.00003658,0.00001411,0.00029291,0.00000
 529,-0.00003650,0.00003412,-0.00003543,-0.00012177,-0.00005380,0.00012
 612,-0.00226523,-0.00212372,-0.00398058,0.00097632,-0.00057176,-0.0006
 4786,-0.00011683,-0.00006315,0.00005224,-0.00000218,-0.00000936,0.0000
 0263,-0.00062322,0.00133482,-0.00086287,0.00006256,-0.00044597,0.00036
 758,-0.00032104,0.00031160,0.00019287,0.00017400,-0.00000800,-0.000012
 56,-0.00000852,-0.00004756,-0.00001729,-0.00002553,0.00001444,-0.00000
 404,0.00002957,-0.00009057,0.00002638,0.00009854,0.00004820,0.00019444
 ,-0.00000232,0.00000170,0.00000941,0.00000858,-0.00000206,0.00000355,0
 .00000400,-0.00000367,0.00000442,-0.00000832,-0.00000756,-0.00000005,0
 .00002544,0.00001041,-0.00001647,-0.00000657,0.00000227,0.00000809,-0.
 00294044,0.00324904,-0.00395650,0.05522589,-0.12110748,0.11660264,-0.0
 0042383,0.00025881,0.00090557,0.00037364,0.00117719,0.00011075,-0.0000
 4177,-0.00001923,-0.00001055,-0.00022630,0.00004149,-0.00001702,-0.000
 78937,0.00006641,-0.00034846,0.00013285,-0.00011649,-0.00000305,0.0000
 4985,0.00001498,0.00000987,-0.17026224,0.08780274,0.11130758,-0.002154
 80,-0.00141135,-0.00354720,0.01075197,-0.00552412,-0.00610663,0.000029
 44,-0.00000254,0.00003887,-0.00003216,-0.00000351,-0.00006613,0.000493
 27,-0.00044251,-0.00049827,-0.00011606,0.00017282,-0.00006436,-0.00000
 882,0.00009125,0.00007130,-0.00019292,0.00021888,0.00059847,0.00030026
 ,0.00013077,-0.00033854,-0.00010077,-0.00005862,0.00004618,0.00000423,
 -0.00000422,-0.00000180,0.00000769,-0.00010081,0.00008129,-0.00006377,
 -0.00002845,0.00007119,-0.00016356,0.00011385,0.00000649,0.00011530,-0
 .00001885,-0.00003739,-0.00000437,-0.00003757,0.00003044,-0.00000558,-
 0.00000481,0.00000563,-0.00022498,0.00043104,0.00065030,0.00024148,-0.
 00023125,-0.00008414,-0.00000453,-0.00000380,0.00000072,0.00002013,-0.
 00000573,0.00000550,-0.00000876,0.00000243,0.00000445,-0.00000093,0.00
 000554,0.00001619,0.00002995,-0.00000737,0.00000980,-0.00010191,0.0000
 0348,-0.00001455,-0.01135773,0.01087888,0.00997172,-0.00683088,0.00330
 676,0.00671171,0.17980415,0.00204640,0.00052767,0.00095751,0.00012609,
 -0.00024075,0.00040403,-0.00002395,-0.00001109,-0.00001842,-0.00016820
 ,0.00008283,-0.00001171,-0.00067040,-0.00004562,-0.00069635,0.00008286
 ,-0.00011360,-0.00005912,0.00007140,0.00004658,0.00004082,0.08885705,-
 0.10208789,-0.07425457,-0.00165747,-0.00031322,-0.00195538,0.00663531,
 -0.00488768,-0.00274142,0.00002899,-0.00002589,0.00002778,-0.00000824,
 -0.00001624,-0.00004557,0.00028471,-0.00023040,-0.00027679,0.00005164,
 0.00012098,-0.00006082,-0.00000639,0.00015817,-0.00002435,-0.00020270,
 0.00002593,0.00010736,0.00009493,0.00006317,-0.00005225,-0.00004683,-0
 .00007760,0.00000815,0.00000541,0.00000080,0.00001201,-0.00002128,-0.0
 0002588,-0.00001742,-0.00009346,0.00002525,0.00002611,-0.00014008,0.00
 000230,-0.00001990,0.00009661,-0.00005648,-0.00003770,-0.00000747,-0.0
 0002293,0.00002988,-0.00000124,-0.00000452,0.00001106,-0.00012822,0.00
 026964,0.00044045,-0.00038583,-0.00052379,-0.00003642,0.00000278,-0.00
 000787,0.00000128,0.00002003,-0.00000326,0.00000811,-0.00001599,-0.000
 00101,0.00000074,-0.00000031,-0.00000284,0.00001152,0.00002534,-0.0000
 0117,0.00000952,-0.00008252,-0.00000764,-0.00000522,-0.01337372,0.0101
 4789,0.01308245,0.01425107,-0.01066341,-0.01533910,-0.09622514,0.10753
 710,-0.00040463,0.00032328,-0.00081868,0.00051697,0.00027391,-0.000302
 77,-0.00001025,-0.00002166,0.00001989,0.00001364,0.00000903,0.00003507
 ,0.00003345,0.00075068,0.00100204,-0.00004715,-0.00009295,-0.00016532,
 0.00003027,-0.00003979,-0.00002075,0.11806321,-0.07665765,-0.13714605,
 -0.00330368,-0.00126467,-0.00409278,0.01431189,-0.01021695,-0.01208284
 ,0.00002048,-0.00000442,0.00001203,-0.00006085,0.00001135,-0.00000415,
 0.00039197,-0.00038761,-0.00078249,-0.00018628,0.00000975,0.00007861,-
 0.00008642,-0.00007385,0.00010647,-0.00014707,0.00069412,0.00075355,-0
 .00007929,0.00043601,-0.00044119,0.00001113,0.00000320,-0.00003466,0.0
 0001079,-0.00000606,-0.00000377,0.00005424,-0.00024703,0.00021169,0.00
 001660,0.00004461,-0.00014747,-0.00002398,0.00009847,0.00003746,-0.000
 03281,0.00005886,0.00001973,-0.00000049,0.00000482,-0.00001981,0.00000
 164,-0.00000582,0.00000180,-0.00016121,0.00021217,0.00043239,0.0000483
 3,0.00015003,0.00024925,-0.00000534,0.00000348,-0.00000916,0.00000129,
 -0.00000412,-0.00001424,0.00000403,0.00000124,0.00000167,-0.00000527,0
 .00000941,-0.00000107,0.00001582,0.00000233,0.00000161,0.00000193,0.00
 000094,-0.00000027,0.00101476,-0.00262882,-0.00355528,-0.01207749,0.00
 851499,0.01006154,-0.11885506,0.08072108,0.14680042,-0.00008681,-0.000
 25702,-0.00017476,-0.00001329,0.00001469,-0.00019088,-0.00003263,-0.00
 003459,0.00001765,-0.00000736,0.00000971,0.00000230,0.00042618,-0.0005
 8707,-0.00130120,0.00008915,0.00006893,0.00013172,-0.00003294,0.000056
 91,0.00001905,-0.00377918,0.00266102,0.00229726,-0.08410895,-0.0367438
 1,-0.09572973,0.00802351,0.00531700,0.01598470,0.00001297,-0.00000789,
 0.00000275,0.00001036,0.00000135,-0.00003781,-0.00117821,0.00083481,0.
 00217185,0.00001055,-0.00002844,-0.00000090,-0.00000681,0.00008364,0.0
 0001825,0.00037075,-0.00068817,-0.00010335,-0.00003090,-0.00029302,0.0
 0006168,-0.00000841,0.00000262,0.00000096,0.00000688,-0.00000577,-0.00
 000070,0.00007530,0.00024221,-0.00036282,-0.00001660,-0.00009711,-0.00
 000515,0.00005146,0.00002360,-0.00002779,0.00001850,-0.00006682,0.0000
 1573,-0.00000389,-0.00001453,0.00000338,0.00000758,-0.00000601,0.00000
 011,0.00044508,-0.00069695,-0.00161741,0.00002574,0.00008036,0.0000754
 4,-0.00000590,0.00000577,-0.00000273,0.00003403,-0.00000788,0.00000532
 ,-0.00001181,-0.00000988,-0.00000019,0.00000008,0.00000174,0.00000026,
 0.00002578,-0.00000327,-0.00000788,-0.00004496,-0.00000576,0.00001162,
 -0.00000206,0.00020783,-0.00003941,-0.00019680,-0.00022454,-0.00026098
 ,0.00105309,0.00073023,0.00132745,0.09097529,0.00012892,0.00010298,0.0
 0005161,0.00001602,0.00001251,0.00002834,0.00001435,0.00000794,-0.0000
 1473,-0.00001770,0.00000043,-0.00000201,-0.00061716,-0.00002538,0.0005
 5510,0.00001576,-0.00006639,-0.00005729,0.00001746,0.00002299,0.000003
 99,0.00297355,-0.00137453,-0.00153216,-0.04015486,-0.06969493,-0.07968
 165,-0.00549904,-0.00525512,-0.01006830,-0.00000161,-0.00001009,0.0000
 0097,-0.00001237,0.00001423,-0.00001019,-0.00000465,0.00062559,0.00067
 188,-0.00002509,0.00003172,-0.00004596,-0.00005454,-0.00002902,0.00005
 742,-0.00065431,0.00032689,-0.00006342,0.00034496,0.00013084,0.0001282
 9,-0.00004120,-0.00002825,0.00002262,-0.00000159,-0.00000032,0.0000060
 1,0.00036981,-0.00055900,0.00049473,0.00001151,0.00010692,-0.00003383,
 -0.00017155,0.00007108,0.00004607,0.00004113,0.00000815,-0.00004499,0.
 00000254,-0.00001388,-0.00000035,-0.00001324,0.00000828,0.00000134,0.0
 0020596,-0.00040977,-0.00032180,-0.00000752,-0.00003175,-0.00002017,-0
 .00000056,-0.00000578,0.00000096,-0.00000520,0.00000109,-0.00000002,-0
 .00000212,0.00000059,0.00000070,-0.00000315,-0.00000253,0.00000083,-0.
 00000181,0.00000236,0.00000151,-0.00000347,-0.00000868,-0.00000016,0.0
 0011358,0.00023702,0.00040514,-0.00002951,0.00014726,-0.00006968,-0.00
 070191,-0.00002912,-0.00091545,0.03869341,0.07271171,0.00013855,0.0001
 0929,0.00010522,0.00002547,0.00004053,0.00012296,0.00001944,0.00000077
 ,-0.00001582,-0.00001183,-0.00000719,-0.00000117,-0.00042909,0.0003917
 5,0.00104653,-0.00001423,-0.00002551,-0.00008383,0.00001786,-0.0000225
 0,-0.00000475,0.00319493,-0.00136458,-0.00098116,-0.10045703,-0.077093
 98,-0.25595151,-0.00732253,-0.00217032,-0.01067535,-0.00000420,0.00000
 194,0.00000202,-0.00001631,-0.00000584,0.00000125,0.00059862,-0.000389
 46,-0.00074203,-0.00000064,0.00003147,-0.00001466,-0.00004386,-0.00000
 859,-0.00004828,-0.00007492,0.00050080,0.00034561,0.00007946,0.0001594
 2,0.00008023,-0.00000643,0.00000371,0.00000604,-0.00000460,0.00000384,
 -0.00000111,0.00009744,-0.00030455,0.00040867,-0.00003523,0.00010734,-
 0.00001299,-0.00002271,-0.00000214,0.00003350,-0.00001802,0.00002853,-
 0.00002322,0.00000598,0.00000803,0.00000294,-0.00000519,0.00000285,-0.
 00000140,-0.00037457,0.00036971,0.00054959,-0.00004198,-0.00006039,-0.
 00004017,0.00000761,-0.00000373,0.00000344,-0.00001619,0.00000700,-0.0
 0000002,0.00000744,0.00000790,0.00000240,0.00000338,0.00000244,0.00000
 187,-0.00000785,0.00000501,0.00000195,0.00000558,0.00000500,-0.0000030
 9,0.00002047,-0.00000921,0.00013546,0.00010177,0.00014943,0.00042178,-
 0.00087210,-0.00046187,-0.00060570,0.10546819,0.08310861,0.27105918,0.
 00003790,0.00003380,-0.00002302,0.00000788,-0.00000451,-0.00011164,0.0
 0004876,-0.00003159,-0.00000123,-0.00002825,-0.00000046,-0.00000683,-0
 .00002008,-0.00127794,0.00062208,0.00014600,0.00012744,-0.00009083,-0.
 00001230,0.00010471,0.00004696,0.00049331,-0.00074088,-0.00038521,-0.0
 6483079,0.06786224,-0.04692535,-0.00446408,0.01243365,-0.01123834,0.00
 000474,-0.00002116,0.00000160,-0.00000512,0.00000171,-0.00004664,-0.00
 018535,0.00040562,0.00005275,0.00000814,0.00001223,-0.00004176,0.00008
 632,-0.00019451,-0.00003320,-0.00291370,0.00173651,0.00233919,0.000993
 06,0.00102007,-0.00090299,-0.00007163,-0.00005899,0.00004083,-0.000002
 19,-0.00001315,0.00000237,-0.00005281,-0.00043537,0.00044945,-0.000053
 28,0.00037896,0.00002334,-0.00063290,0.00018175,0.00021927,0.00014347,
 0.00009704,-0.00001841,-0.00000671,-0.00004509,-0.00001165,-0.00005189
 ,0.00002289,0.00000895,0.00006621,-0.00011328,0.00001911,0.00001563,0.
 00000570,0.00004204,-0.00000224,0.00000146,0.00001120,0.00002038,-0.00
 000224,0.00000646,-0.00000485,-0.00000335,-0.00000003,-0.00000285,-0.0
 0001058,0.00000218,0.00003094,0.00000867,-0.00001545,-0.00001078,0.000
 00564,-0.00000184,-0.00000022,-0.00006567,0.00001335,0.00030239,0.0000
 7198,0.00031132,-0.00014757,-0.00021808,-0.00011159,-0.00424037,0.0094
 5292,-0.00415977,0.06709099,-0.00004536,-0.00000799,0.00006427,-0.0000
 2697,-0.00003517,0.00001951,-0.00004281,0.00002112,0.00001069,0.000028
 02,0.00000608,0.00001008,0.00001149,0.00069560,-0.00057070,-0.00007460
 ,-0.00009747,0.00007964,0.00000514,-0.00005946,-0.00003061,-0.00066936
 ,0.00032892,0.00032220,0.06472910,-0.22591749,0.12423432,0.00155544,-0
 .00953576,0.00716881,-0.00000142,0.00001082,-0.00000174,0.00000642,0.0
 0000285,0.00002314,0.00008973,-0.00008000,0.00014365,-0.00001120,-0.00
 002133,-0.00000434,0.00003758,0.00004910,-0.00002237,0.00259660,-0.000
 71550,-0.00190408,-0.00065026,-0.00035733,0.00086545,0.00006250,0.0000
 5275,-0.00002868,0.00000454,0.00000924,0.00000043,-0.00009096,0.000225
 62,-0.00018678,-0.00014825,0.00026580,-0.00005361,0.00042386,-0.000115
 18,-0.00017307,-0.00012262,-0.00007069,0.00000027,0.00000329,0.0000298
 5,0.00002002,0.00003783,-0.00001567,-0.00000102,-0.00003742,-0.0000671
 1,-0.00011244,0.00003037,0.00002916,0.00000694,0.00000173,-0.00000353,
 -0.00000839,-0.00000812,0.00000058,-0.00000217,0.00000244,0.00000448,-
 0.00000164,0.00000307,0.00000560,-0.00000229,-0.00001504,-0.00000866,0
 .00000782,0.00001349,0.00000053,-0.00000120,0.00004378,-0.00006233,0.0
 0001572,-0.00008107,-0.00003263,-0.00069560,0.00003851,0.00035967,-0.0
 0005680,-0.00381346,0.00865140,-0.00645915,-0.07074589,0.23860992,-0.0
 0007318,-0.00000231,0.00002458,-0.00004865,-0.00000837,-0.00002602,-0.
 00003435,0.00003538,0.00000261,0.00002969,0.00000150,0.00000816,-0.000
 27589,0.00061197,-0.00023936,-0.00012460,-0.00009918,0.00004535,0.0000
 0883,-0.00006197,-0.00004177,-0.00068019,0.00040866,0.00072220,-0.0435
 3878,0.11855518,-0.11660028,0.00407322,-0.01148842,0.00607125,-0.00000
 367,0.00001316,-0.00000295,0.00000200,0.00000811,0.00003673,0.00010936
 ,0.00004937,0.00007665,-0.00004804,-0.00003051,0.00002148,-0.00002520,
 -0.00004801,0.00006444,0.00270503,-0.00201015,-0.00185106,-0.00030178,
 -0.00083358,0.00102730,0.00005562,0.00002452,-0.00002687,0.00000896,0.
 00000608,0.00001034,0.00016544,0.00013093,0.00001071,-0.00004432,-0.00
 002256,-0.00001762,0.00042275,-0.00014799,-0.00016935,-0.00009618,-0.0
 0008770,-0.00003973,0.00000623,0.00002147,0.00002324,0.00003867,-0.000
 01955,-0.00000545,-0.00007475,-0.00012769,-0.00004328,0.00005382,0.000
 01762,-0.00003069,0.00000202,-0.00000523,-0.00001091,-0.00001584,0.000
 00237,-0.00000515,0.00000274,0.00000412,-0.00000282,0.00000317,0.00000
 428,-0.00000369,-0.00002106,-0.00000786,0.00001029,0.00001580,-0.00000
 197,0.00000053,0.00002023,-0.00000506,-0.00004426,-0.00010130,-0.00001
 419,-0.00042345,0.00016922,0.00026923,0.00016369,-0.00696266,0.0225099
 4,-0.01210180,0.04671423,-0.12991496,0.12659586,-0.00005357,0.00008677
 ,0.00016379,-0.00002167,-0.00001747,0.00041514,-0.00004525,0.00012962,
 -0.00009611,0.00005137,-0.00000518,0.00000608,-0.00091233,0.00233834,0
 .00047819,-0.00057344,-0.00032516,-0.00008237,0.00004525,-0.00019493,-
 0.00010409,0.00127284,-0.00011366,-0.00105935,-0.21708004,-0.13547358,
 0.03705002,-0.01364362,-0.01014420,0.00169853,-0.00003888,0.00004787,0
 .00000538,-0.00003172,0.00001675,0.00017947,0.00089861,0.00030811,0.00
 183344,-0.00001333,0.00003155,0.00002315,0.00012067,-0.00030584,0.0000
 6638,0.00145031,-0.00079672,-0.00044524,-0.00038075,0.00024565,0.00037
 860,0.00006964,0.00006962,-0.00004409,-0.00000371,0.00001650,-0.000002
 32,-0.00025903,0.00005121,-0.00019416,-0.00009630,0.00078891,-0.000119
 02,0.00027117,-0.00019904,-0.00009348,-0.00013655,0.00006387,0.0000330
 8,0.00000004,0.00005916,-0.00000893,0.00001969,-0.00000448,-0.00000401
 ,0.00004398,-0.00032704,-0.00096972,-0.00004027,-0.00002831,-0.0001422
 5,0.00001363,-0.00000625,-0.00001302,-0.00009580,0.00002341,-0.0000380
 4,0.00002191,0.00001230,0.00000184,0.00001708,0.00001221,-0.00000061,-
 0.00008780,-0.00001456,0.00004695,0.00002876,-0.00000787,-0.00000196,0
 .00037915,0.00039230,0.00068294,0.00000042,0.00003482,0.00005042,-0.00
 014370,0.00006667,-0.00029105,-0.00785440,-0.00437771,0.00414706,0.008
 24386,0.00685991,-0.00213661,0.22856381,0.00014466,0.00000679,-0.00005
 879,0.00002394,-0.00002373,-0.00009939,0.00001727,-0.00006381,0.000040
 05,-0.00002681,-0.00000701,-0.00000639,0.00036544,-0.00130660,-0.00076
 938,0.00051932,0.00006699,0.00008348,-0.00000713,0.00012960,0.00007083
 ,-0.00027188,0.00084057,0.00081239,-0.12751272,-0.13609467,0.02920994,
 0.01265856,0.00638413,-0.00306155,0.00000485,-0.00002693,0.00000016,0.
 00004166,-0.00001639,-0.00009895,-0.00034481,-0.00047384,-0.00113638,0
 .00007435,-0.00002057,-0.00002890,0.00006454,0.00054868,-0.00012127,-0
 .00035501,0.00096883,0.00030599,-0.00005050,0.00005061,-0.00019184,-0.
 00005063,-0.00003898,0.00002410,-0.00000757,-0.00000303,-0.00000201,-0
 .00003758,-0.00000273,0.00012786,-0.00014681,-0.00023434,-0.00003367,-
 0.00018341,0.00008334,0.00005365,0.00007307,-0.00000226,-0.00001354,0.
 00000907,-0.00002053,0.00000600,-0.00001771,0.00001002,0.00000268,-0.0
 0009337,0.00036234,0.00076498,-0.00001179,0.00000774,0.00004500,-0.000
 00304,0.00000009,0.00001385,0.00004364,-0.00000716,0.00003179,-0.00000
 160,-0.00000193,0.00000237,-0.00000152,-0.00000124,-0.00000013,0.00003
 264,0.00001285,-0.00002219,-0.00000780,0.00000372,-0.00000370,-0.00031
 263,-0.00011550,0.00002297,-0.00008158,-0.00007908,0.00001803,0.000192
 44,0.00003191,0.00028988,-0.00544380,-0.00567744,0.00334366,-0.0199822
 5,-0.01215578,0.00226337,0.14068649,0.14686533,0.00004826,-0.00007483,
 -0.00017431,-0.00001149,0.00003244,-0.00034001,0.00006707,-0.00010151,
 0.00007094,-0.00001898,0.00000239,-0.00000054,0.00024210,-0.00191562,0
 .00090124,0.00048489,0.00030623,-0.00007661,-0.00003853,0.00012129,0.0
 0006601,-0.00057304,0.00099082,0.00070054,0.03995168,0.03334053,-0.051
 41241,0.01038478,0.00753949,-0.00330006,0.00002573,-0.00002521,-0.0000
 0914,-0.00000767,-0.00001505,-0.00012659,-0.00033450,-0.00053811,-0.00
 213998,0.00002472,-0.00002569,0.00000722,0.00005792,0.00011630,-0.0001
 1734,-0.00102874,0.00046948,0.00016098,0.00018621,0.00000852,-0.000356
 74,-0.00001703,-0.00003132,0.00001341,0.00000483,-0.00001159,0.0000007
 2,-0.00014941,-0.00009738,-0.00001224,0.00001607,-0.00031583,0.0002895
 4,-0.00013568,0.00006575,0.00004724,0.00006300,-0.00002392,-0.00000255
 ,-0.00000799,-0.00002066,0.00001020,-0.00000910,-0.00000053,0.00000366
 ,-0.00019829,0.00061340,0.00144002,0.00005044,0.00004426,0.00008825,-0
 .00000702,-0.00000011,0.00000854,0.00005860,-0.00001203,0.00002419,-0.
 00001094,0.00000021,0.00000070,-0.00000913,-0.00000657,0.00000019,0.00
 006954,0.00001736,-0.00004228,-0.00001026,0.00000297,0.00000330,-0.000
 25405,-0.00054616,-0.00031339,0.00004824,0.00000552,-0.00018629,0.0000
 4200,-0.00005470,0.00025956,-0.02078931,-0.01521389,0.00697740,0.01319
 908,0.00723867,-0.00322893,-0.04141402,-0.03188491,0.05076555\\-0.0000
 1072,-0.00002988,-0.00000115,-0.00000037,0.00002700,-0.00000900,0.0000
 0182,0.00000010,-0.00000426,-0.00000636,-0.00000147,-0.00000328,-0.000
 01937,0.00001262,0.00000217,0.00000473,-0.00000854,0.00000589,0.000010
 19,-0.00000637,0.00000393,-0.00000335,0.00000421,0.00000123,0.00000845
 ,0.00000317,0.00000640,-0.00000547,-0.00000608,-0.00001593,-0.00000041
 ,-0.00000072,-0.00000088,0.00000272,0.00000308,-0.00000798,0.00001958,
 -0.00001642,-0.00001316,0.00001981,-0.00001011,-0.00000963,-0.00002200
 ,0.00003846,0.00002118,0.00001077,-0.00000020,0.00000821,-0.00000158,-
 0.00001506,-0.00000027,-0.00000116,0.00000798,-0.00000372,-0.00000075,
 -0.00000134,0.00000156,-0.00000306,0.00000270,-0.00000041,-0.00000005,
 0.00000059,0.00000158,0.00000327,0.00000130,-0.00000215,-0.00000477,-0
 .00000369,0.00000185,0.00000010,-0.00000002,0.00000157,-0.00000040,0.0
 0000035,0.00000217,-0.00000656,0.00000567,0.00000981,0.00000375,-0.000
 00806,0.00000282,-0.00000016,0.00000041,-0.00000038,0.00000135,-0.0000
 0064,-0.00000168,-0.00000077,0.00000147,-0.00000016,0.00000019,-0.0000
 0029,-0.00000130,-0.00000004,-0.00000175,-0.00000134,-0.00000015,-0.00
 000269,0.00000020,-0.00000037,-0.00000083,0.00000620,-0.00000021,0.000
 00042,0.00000131,0.00000137,0.00000193,0.00000244,-0.00000128,0.000001
 87,-0.00000157,0.00000140,0.00000096,-0.00000180,-0.00000014,-0.000000
 11,-0.00000046\\\@


 IT PROBABLY IS NOT POSSIBLE FOR A SCIENTIST TO INTERROGATE NATURE 
 FROM A WHOLLY DISINTERESTED VIEWPOINT.
 EVEN IF HE HAS NO PARTICULAR AXE TO GRIND, HE IS LIKELY TO HAVE 
 A DISTINCTIVE WAY OF VIEWING NATURE.

                                                   -- JOHN LOSEE
 Job cpu time:       0 days  9 hours 15 minutes  9.2 seconds.
 Elapsed time:       0 days  0 hours 27 minutes 48.2 seconds.
 File lengths (MBytes):  RWF=   1250 Int=      0 D2E=      0 Chk=     19 Scr=      1
 Normal termination of Gaussian 16 at Mon Jun 29 01:14:17 2020.
