********************************************************************************************
*** WorkDir at /tmp/molcas_calculations/GMe-Cis-OOScan6-D0-VDZ-SA-CAS1311-Pi-PCM cleaned ***
********************************************************************************************
   This run of MOLCAS is using the pymolcas driver

                             OPE
                             OPE          NMOL  CASOP  ENMOLC A   SO
                 OPE        NMOLC        AS  OP EN  MO LC     AS  OP
                OPENM       OL CA        SO  PE NM  OL CA     SOP EN
                OP EN      MO   LC       AS  OP ENMOL  CASO   PENMOL
                OP  EN     MO   LC       AS  OP EN     MO     LC ASO
               OP   E  NMOL  C  AS       OP  EN MO     LC     AS  OP
               OP  E   NMO   LC AS        OPEN  MO     LCASOP EN   M
               O  PEN   MO  LCA  SO
            OPE   NMO   L   CAS    OP
        OPENMOL  CASOP     ENMOL   CASOPE
     OPENMOLCA   SOPENMOLCASOPEN   MOLCASOPE
    OPENMOLCAS   OP           EN   MOL    CAS
    OPENMOLCAS       OP  ENM        O     LCA
    OPENMOLCAS    OPEN  MOLCASO     P  E  NMO
    OPENMOLCAS     OP               E  N  MOL
    OPENMOLCA   SO           PENM   O  L  CAS    OPEN    MO    LCAS
    OPENMOLCA   SOP           ENM   O  L  CAS   OP  EN  MOLC  AS   O
    OPENMOLCA   SOPE           NM      O  LCA   S      OP  EN MO
    OPENMOLC                AS         O  PEN   M      OL  CA  SOPE
    OPENMO        LCASOPE  NMOL        C  ASO   P      ENMOLC     AS
    OPE     NMO      LCA  SO     P     E   NM   OL  CA SO  PE N   MO
          OPENMOLCA            SOPE   NMO        LCAS  O    P  ENMO
     OPENMOLCASOPENMOLCASOPENMOLCASOPENMOLCA
        OPENMOLCASOPENMOLCASOPENMOLCASOPE
            OPENMOLCASOPENMOLCASOPENM
               OPENMOLCASOPENMOLCA        version: 19.11
                   OPENMOLCASO
                       OPE                tag: 1008-ga5e89a9f

 OpenMolcas is free software; you can redistribute it and/or modify it
 under the terms of the GNU Lesser General Public License version 2.1.
 OpenMolcas is distributed in the hope that it will be useful, but it
 is provided "as is" and without any express or implied warranties.
 For more details see the full text of the license in the file
 LICENSE or in <http://www.gnu.org/licenses/>.

                 Copyright (C) The OpenMolcas Authors
           For the author list and the recommended citation,
                   consult the file CONTRIBUTORS.md

           *************************************************
           * pymolcas version py2.08                       *
           *   build bed633bbe89b7744c23cdbfc3f64969c      *
           *   (after the EMIL interpreter by V. Veryazov) *
           *************************************************

configuration info
------------------
C Compiler ID: GNU
C flags: -std=gnu99 -fopenmp
Fortran Compiler ID: GNU
Fortran flags: -fno-aggressive-loop-optimizations -cpp -fdefault-integer-8 -fopenmp
Definitions: _MOLCAS_;_I8_;_LINUX_;_OPENBLAS_;_FDE_
Parallel: OFF (GA=OFF)


   ----------------------------------------------------------------------------------------
  |
  |              Project: GMe-Cis-OOScan6-D0-VDZ-SA-CAS1311-Pi-PCM
  |       Submitted from: /home/ubuntu/newcas/build/calc/200723
  |         Scratch area: /tmp/molcas_calculations/GMe-Cis-OOScan6-D0-VDZ-SA-CAS1311-Pi-PCM
  |      Save outputs to: /home/ubuntu/newcas/build/calc/200723
  |               Molcas: /home/ubuntu/newcas/build
  |
  | Scratch area is empty
  |
  |       MOLCAS_DRIVER = /usr/local/sbin/pymolcas
  |          MOLCAS_FIM = 1
  | MOLCAS_KEEP_WORKDIR = NO
  |       MOLCAS_LINALG = /home/ubuntu/newcas/OpenBLAS_install/openblas-lapack-ilp64
  |      MOLCAS_MAXITER = 200
  |       MOLCAS_MAXMEM = 30000
  |  MOLCAS_NEW_WORKDIR = YES
  |       MOLCAS_NPROCS = 1
  |        MOLCAS_PRINT = VERBOSE
  |       MOLCAS_SOURCE = /home/ubuntu/newcas/OpenMolcas
  |    MOLCAS_STRUCTURE = 0
  |
   ----------------------------------------------------------------------------------------

++ ---------   Input file   ---------

&GATEWAY
        Title = GMe-Cis-OOScan6-D0-VDZ-SA-CAS1311-Pi-PCM
        coord = GMe-Cis-Mono-D-0-OO-Scan-Geom6.xyz
        basis = ANO-RCC-VDZ
        group = c1
        RICD
        RF-input
                PCM-model
                solvent = water
                Conductor version
        End of RF-input

&SEWARD

&RASSCF
        Fileorb = GMe-Cis-OOScan6-D0-VDZ-SA-CAS1311-Pi-ExpBas.RasOrb
        Spin = 2
        Charge = 0
        Nactel = 13 0 0
        Ras2 = 11
        CiRoot = 5 5 1
        RFRoot = 1
        TDM

-- ----------------------------------

--- Start Module: gateway at Thu Jul 23 16:52:38 2020 ---

()()()()()()()()()()()()()()()()()()()()()()()()()()()()()()()()()()()()()()()()()()()()()()()()()()

                                              &GATEWAY

                                   only a single process is used
                       available to each process: 20 GB of memory, 16 threads
                                             pid: 31422
()()()()()()()()()()()()()()()()()()()()()()()()()()()()()()()()()()()()()()()()()()()()()()()()()()



 Basis Set     1 Label: O.ANO-RCC-VDZ
 Basis set is read from library:basis_library 
 Basis Set Reference(s):
     B. O. Roos, R. Lindh, P.-A. Malmqvist, V. Veryazov, and P.-O. Widmark,          
     J. Phys. Chem. A 108, 2851 (2004)                                               




 Basis Set     2 Label: C.ANO-RCC-VDZ
 Basis set is read from library:basis_library 
 Basis Set Reference(s):
     B. O. Roos, R. Lindh, P.-A. Malmqvist, V. Veryazov, and P.-O. Widmark,          
     J. Phys. Chem. A 108, 2851 (2004)                                               




 Basis Set     3 Label: H.ANO-RCC-VDZ
 Basis set is read from library:basis_library 
 Basis Set Reference(s):
     P.-O. Widmark, P.-A. Malmqvist, and B. O. Roos                                  
     Theor. Chim. Acta 77, 291 (1990)                                                




 Basis Set     4 Label: N.ANO-RCC-VDZ
 Basis set is read from library:basis_library 
 Basis Set Reference(s):
     B. O. Roos, R. Lindh, P.-A. Malmqvist, V. Veryazov, and P.-O. Widmark,          
     J. Phys. Chem. A 108, 2851 (2004)                                               




 Basis Set     5 Label: C.ANO-RCC-VDZ
 Basis set is read from library:basis_library 
 Basis Set Reference(s):
     B. O. Roos, R. Lindh, P.-A. Malmqvist, V. Veryazov, and P.-O. Widmark,          
     J. Phys. Chem. A 108, 2851 (2004)                                               




 Basis Set     6 Label: P.ANO-RCC-VDZ
 Basis set is read from library:basis_library 
 Basis Set Reference(s):
     B. O. Roos, R. Lindh, P.-A. Malmqvist, V. Veryazov, and P.-O. Widmark,          
     J. Phys. Chem. A 108, 2851 (2004)                                               




 Basis Set     7 Label: H.ANO-RCC-VDZ
 Basis set is read from library:basis_library 
 Basis Set Reference(s):
     P.-O. Widmark, P.-A. Malmqvist, and B. O. Roos                                  
     Theor. Chim. Acta 77, 291 (1990)                                                




 Basis Set     8 Label: C.ANO-RCC-VDZ
 Basis set is read from library:basis_library 
 Basis Set Reference(s):
     B. O. Roos, R. Lindh, P.-A. Malmqvist, V. Veryazov, and P.-O. Widmark,          
     J. Phys. Chem. A 108, 2851 (2004)                                               




 Basis Set     9 Label: N.ANO-RCC-VDZ
 Basis set is read from library:basis_library 
 Basis Set Reference(s):
     B. O. Roos, R. Lindh, P.-A. Malmqvist, V. Veryazov, and P.-O. Widmark,          
     J. Phys. Chem. A 108, 2851 (2004)                                               




 Basis Set    10 Label: C.ANO-RCC-VDZ
 Basis set is read from library:basis_library 
 Basis Set Reference(s):
     B. O. Roos, R. Lindh, P.-A. Malmqvist, V. Veryazov, and P.-O. Widmark,          
     J. Phys. Chem. A 108, 2851 (2004)                                               




 Basis Set    11 Label: H.ANO-RCC-VDZ
 Basis set is read from library:basis_library 
 Basis Set Reference(s):
     P.-O. Widmark, P.-A. Malmqvist, and B. O. Roos                                  
     Theor. Chim. Acta 77, 291 (1990)                                                




 Basis Set    12 Label: C.ANO-RCC-VDZ
 Basis set is read from library:basis_library 
 Basis Set Reference(s):
     B. O. Roos, R. Lindh, P.-A. Malmqvist, V. Veryazov, and P.-O. Widmark,          
     J. Phys. Chem. A 108, 2851 (2004)                                               




 Basis Set    13 Label: H.ANO-RCC-VDZ
 Basis set is read from library:basis_library 
 Basis Set Reference(s):
     P.-O. Widmark, P.-A. Malmqvist, and B. O. Roos                                  
     Theor. Chim. Acta 77, 291 (1990)                                                




 Basis Set    14 Label: O.ANO-RCC-VDZ
 Basis set is read from library:basis_library 
 Basis Set Reference(s):
     B. O. Roos, R. Lindh, P.-A. Malmqvist, V. Veryazov, and P.-O. Widmark,          
     J. Phys. Chem. A 108, 2851 (2004)                                               




 Basis Set    15 Label: H.ANO-RCC-VDZ
 Basis set is read from library:basis_library 
 Basis Set Reference(s):
     P.-O. Widmark, P.-A. Malmqvist, and B. O. Roos                                  
     Theor. Chim. Acta 77, 291 (1990)                                                




 Basis Set    16 Label: RU.ANO-RCC-VDZ
 Basis set is read from library:basis_library 
 Basis Set Reference(s):
     B. O. Roos, R. Lindh and P.-A. Malmqvist, V. Veryazov and P.-O. Widmark         
     J. Phys. Chem. A, 109. 6575-6579 (2005).                                        




 Basis Set    17 Label: H.ANO-RCC-VDZ
 Basis set is read from library:basis_library 
 Basis Set Reference(s):
     P.-O. Widmark, P.-A. Malmqvist, and B. O. Roos                                  
     Theor. Chim. Acta 77, 291 (1990)                                                




 Basis Set    19 Label: O.ANO-RCC-VDZ....acCD-aux-basis.
 On-the-fly basis set generation


 Basis Set    20 Label: C.ANO-RCC-VDZ....acCD-aux-basis.
 On-the-fly basis set generation


 Basis Set    21 Label: H.ANO-RCC-VDZ....acCD-aux-basis.
 On-the-fly basis set generation


 Basis Set    22 Label: N.ANO-RCC-VDZ....acCD-aux-basis.
 On-the-fly basis set generation


 Basis Set    23 Label: C.ANO-RCC-VDZ....acCD-aux-basis.
 On-the-fly basis set generation


 Basis Set    24 Label: P.ANO-RCC-VDZ....acCD-aux-basis.
 On-the-fly basis set generation


 Basis Set    25 Label: H.ANO-RCC-VDZ....acCD-aux-basis.
 On-the-fly basis set generation


 Basis Set    26 Label: C.ANO-RCC-VDZ....acCD-aux-basis.
 On-the-fly basis set generation


 Basis Set    27 Label: N.ANO-RCC-VDZ....acCD-aux-basis.
 On-the-fly basis set generation


 Basis Set    28 Label: C.ANO-RCC-VDZ....acCD-aux-basis.
 On-the-fly basis set generation


 Basis Set    29 Label: H.ANO-RCC-VDZ....acCD-aux-basis.
 On-the-fly basis set generation


 Basis Set    30 Label: C.ANO-RCC-VDZ....acCD-aux-basis.
 On-the-fly basis set generation


 Basis Set    31 Label: H.ANO-RCC-VDZ....acCD-aux-basis.
 On-the-fly basis set generation


 Basis Set    32 Label: O.ANO-RCC-VDZ....acCD-aux-basis.
 On-the-fly basis set generation


 Basis Set    33 Label: H.ANO-RCC-VDZ....acCD-aux-basis.
 On-the-fly basis set generation


 Basis Set    34 Label: RU.ANO-RCC-VDZ....acCD-aux-basis.
 On-the-fly basis set generation


 Basis Set    35 Label: RU.ANO-RCC-VDZ....acCD-aux-basis.
 On-the-fly basis set generation


 Basis Set    36 Label: H.ANO-RCC-VDZ....acCD-aux-basis.
 On-the-fly basis set generation

               ****************************************************************************************
               *                                                                                      *
               *                       GMe-Cis-OOScan6-D0-VDZ-SA-CAS1311-Pi-PCM                       *
               *                                                                                      *
               ****************************************************************************************

  Weights used for alignment and distance                     
  mat. size =    39x    1
       15.9949146195700003
       15.9949146195700003
       12.0000000000000000
        1.0078250322300000
       14.0030740044299993
       12.0000000000000000
       12.0000000000000000
       12.0000000000000000
       30.9737619984199988
        1.0078250322300000
       12.0000000000000000
       12.0000000000000000
       12.0000000000000000
       14.0030740044299993
       12.0000000000000000
       12.0000000000000000
       12.0000000000000000
        1.0078250322300000
        1.0078250322300000
        1.0078250322300000
       12.0000000000000000
       12.0000000000000000
        1.0078250322300000
        1.0078250322300000
       15.9949146195700003
        1.0078250322300000
        1.0078250322300000
        1.0078250322300000
        1.0078250322300000
        1.0078250322300000
        1.0078250322300000
        1.0078250322300000
        1.0078250322300000
        1.0078250322300000
        1.0078250322300000
        1.0078250322300000
        1.0078250322300000
      101.9043441000000030
        1.0078250322300000


++    Symmetry information:
      ---------------------

                    Character Table for C1 

                             E  
                    a        1  x, y, xy, Rz, z, xz, Ry, yz, Rx, I
--


++    Basis set information:
      ----------------------


      Basis set label: O.ANO-RCC...3S2P.

      Electronic valence basis set:
      ------------------
      Associated Effective Charge   8.000000 au
      Associated Actual Charge      8.000000 au
      Nuclear Model: Point charge

      Shell  nPrim  nBasis  Cartesian Spherical Contaminant
         s      14       3        X                  
         p       9       2        X                  

       Label   Cartesian Coordinates / Bohr

 O1                -0.0910696814       -3.8097729049       -4.6798254894
 O2                 0.1070888898       -1.2802705522       -3.6686292607


      Basis set label: C.ANO-RCC...3S2P.

      Electronic valence basis set:
      ------------------
      Associated Effective Charge   6.000000 au
      Associated Actual Charge      6.000000 au
      Nuclear Model: Point charge

      Shell  nPrim  nBasis  Cartesian Spherical Contaminant
         s      14       3        X                  
         p       9       2        X                  

       Label   Cartesian Coordinates / Bohr

 C3                 4.5282562261       -4.6849466472       -1.0438677037


      Basis set label: H.ANO-RCC...2S.

      Electronic valence basis set:
      ------------------
      Associated Effective Charge   1.000000 au
      Associated Actual Charge      1.000000 au
      Nuclear Model: Point charge

      Shell  nPrim  nBasis  Cartesian Spherical Contaminant
         s       8       2        X                  

       Label   Cartesian Coordinates / Bohr

 H4                 4.2467701815       -0.4609457758       -3.1277291726


      Basis set label: N.ANO-RCC...3S2P.

      Electronic valence basis set:
      ------------------
      Associated Effective Charge   7.000000 au
      Associated Actual Charge      7.000000 au
      Nuclear Model: Point charge

      Shell  nPrim  nBasis  Cartesian Spherical Contaminant
         s      14       3        X                  
         p       9       2        X                  

       Label   Cartesian Coordinates / Bohr

 N5                 3.7868769832       -2.3568569740        0.2647827554


      Basis set label: C.ANO-RCC...3S2P.

      Electronic valence basis set:
      ------------------
      Associated Effective Charge   6.000000 au
      Associated Actual Charge      6.000000 au
      Nuclear Model: Point charge

      Shell  nPrim  nBasis  Cartesian Spherical Contaminant
         s      14       3        X                  
         p       9       2        X                  

       Label   Cartesian Coordinates / Bohr

 C6                 4.7708706044       -0.1561990923       -1.1358142180
 C7                -5.2351971002        1.2274640453       -3.2166067717
 C8                -7.0064373968       -0.2192082305        1.7419514314


      Basis set label: P.ANO-RCC...4S3P.

      Electronic valence basis set:
      ------------------
      Associated Effective Charge  15.000000 au
      Associated Actual Charge     15.000000 au
      Nuclear Model: Point charge

      Shell  nPrim  nBasis  Cartesian Spherical Contaminant
         s      17       4        X                  
         p      12       3        X                  

       Label   Cartesian Coordinates / Bohr

 P9                -4.1055603969        0.3903342694       -0.0504254519


      Basis set label: H.ANO-RCC...2S.

      Electronic valence basis set:
      ------------------
      Associated Effective Charge   1.000000 au
      Associated Actual Charge      1.000000 au
      Nuclear Model: Point charge

      Shell  nPrim  nBasis  Cartesian Spherical Contaminant
         s       8       2        X                  

       Label   Cartesian Coordinates / Bohr

 H10                6.8487983332       -0.0250161944       -0.9595348959


      Basis set label: C.ANO-RCC...3S2P.

      Electronic valence basis set:
      ------------------
      Associated Effective Charge   6.000000 au
      Associated Actual Charge      6.000000 au
      Nuclear Model: Point charge

      Shell  nPrim  nBasis  Cartesian Spherical Contaminant
         s      14       3        X                  
         p       9       2        X                  

       Label   Cartesian Coordinates / Bohr

 C11                4.7957356207       -2.3466864680        2.8427301271
 C12               -1.1210082138       -2.5385333539        3.5180653317
 C13                3.5161340316        2.2781820063       -0.3722023472


      Basis set label: N.ANO-RCC...3S2P.

      Electronic valence basis set:
      ------------------
      Associated Effective Charge   7.000000 au
      Associated Actual Charge      7.000000 au
      Nuclear Model: Point charge

      Shell  nPrim  nBasis  Cartesian Spherical Contaminant
         s      14       3        X                  
         p       9       2        X                  

       Label   Cartesian Coordinates / Bohr

 N14                1.0725896511        2.0557272263        0.2525184329


      Basis set label: C.ANO-RCC...3S2P.

      Electronic valence basis set:
      ------------------
      Associated Effective Charge   6.000000 au
      Associated Actual Charge      6.000000 au
      Nuclear Model: Point charge

      Shell  nPrim  nBasis  Cartesian Spherical Contaminant
         s      14       3        X                  
         p       9       2        X                  

       Label   Cartesian Coordinates / Bohr

 C15               -3.0959345305        3.5199191530        1.3223982167
 C16               -0.3920614791        4.0849567129        0.6772721739
 C17                4.6615707350        4.6409897278       -0.4969828530


      Basis set label: H.ANO-RCC...2S.

      Electronic valence basis set:
      ------------------
      Associated Effective Charge   1.000000 au
      Associated Actual Charge      1.000000 au
      Nuclear Model: Point charge

      Shell  nPrim  nBasis  Cartesian Spherical Contaminant
         s       8       2        X                  

       Label   Cartesian Coordinates / Bohr

 H18                6.6592833693        4.8053637753       -0.9787912052
 H19               -3.2392494701        3.2458767396        3.3873699832
 H20               -4.3548114932        5.0953309108        0.8088991574


      Basis set label: C.ANO-RCC...3S2P.

      Electronic valence basis set:
      ------------------
      Associated Effective Charge   6.000000 au
      Associated Actual Charge      6.000000 au
      Nuclear Model: Point charge

      Shell  nPrim  nBasis  Cartesian Spherical Contaminant
         s      14       3        X                  
         p       9       2        X                  

       Label   Cartesian Coordinates / Bohr

 C21                0.6315143455        6.5080712643        0.5215133878
 C22                3.1880889147        6.7765635521       -0.0437490495


      Basis set label: H.ANO-RCC...2S.

      Electronic valence basis set:
      ------------------
      Associated Effective Charge   1.000000 au
      Associated Actual Charge      1.000000 au
      Nuclear Model: Point charge

      Shell  nPrim  nBasis  Cartesian Spherical Contaminant
         s       8       2        X                  

       Label   Cartesian Coordinates / Bohr

 H23               -0.5585444609        8.1579212238        0.8545643892
 H24                4.0309861348        8.6565311310       -0.1470717151


      Basis set label: O.ANO-RCC...3S2P.

      Electronic valence basis set:
      ------------------
      Associated Effective Charge   8.000000 au
      Associated Actual Charge      8.000000 au
      Nuclear Model: Point charge

      Shell  nPrim  nBasis  Cartesian Spherical Contaminant
         s      14       3        X                  
         p       9       2        X                  

       Label   Cartesian Coordinates / Bohr

 O25               -1.6525050247       -3.0598823355        5.6004414758


      Basis set label: H.ANO-RCC...2S.

      Electronic valence basis set:
      ------------------
      Associated Effective Charge   1.000000 au
      Associated Actual Charge      1.000000 au
      Nuclear Model: Point charge

      Shell  nPrim  nBasis  Cartesian Spherical Contaminant
         s       8       2        X                  

       Label   Cartesian Coordinates / Bohr

 H26               -6.4591519241        2.9080900846       -3.1975299864
 H27               -6.2959967500       -0.3859123103       -3.9879514018
 H28               -3.5558825309        1.5168850500       -4.4071247815
 H29               -6.5003479536       -0.6256335178        3.7155832857
 H30               -7.9248934262       -1.9064785467        0.9505020051
 H31               -8.3252545825        1.3877846303        1.6627454506
 H32                3.8688533025       -6.3073067608        0.0683854090
 H33                6.6085404434       -4.8029789410       -1.2495190389
 H34                3.6055709896       -4.7400567302       -2.8990987677
 H35                4.2467909685       -0.5888915728        3.7993038222
 H36                6.8830798548       -2.5012925212        2.8260891988
 H37                3.9981351358       -3.9403189651        3.9019556350


      Basis set label: RU.ANO-RCC...6S5P3D.

      Electronic valence basis set:
      ------------------
      Associated Effective Charge  44.000000 au
      Associated Actual Charge     44.000000 au
      Nuclear Model: Point charge

      Shell  nPrim  nBasis  Cartesian Spherical Contaminant
         s      21       6        X                  
         p      18       5        X                  
         d      13       3                 X         

       Label   Cartesian Coordinates / Bohr

 RU38              -0.4401191042       -1.7109221284        0.2164889146


      Basis set label: H.ANO-RCC...2S.

      Electronic valence basis set:
      ------------------
      Associated Effective Charge   1.000000 au
      Associated Actual Charge      1.000000 au
      Nuclear Model: Point charge

      Shell  nPrim  nBasis  Cartesian Spherical Contaminant
         s       8       2        X                  

       Label   Cartesian Coordinates / Bohr

 H39               -1.9061743008       -4.0598365835       -4.7000814637
--


++    Molecular structure info:
      -------------------------

                    ************************************************ 
                    **** Cartesian Coordinates / Bohr, Angstrom **** 
                    ************************************************ 

     Center  Label                x              y              z                     x              y              z
        1      O1              -0.091070      -3.809773      -4.679825             -0.048192      -2.016045      -2.476457
        2      O2               0.107089      -1.280271      -3.668629              0.056669      -0.677490      -1.941355
        3      C3               4.528256      -4.684947      -1.043868              2.396250      -2.479167      -0.552391
        4      H4               4.246770      -0.460946      -3.127729              2.247294      -0.243922      -1.655123
        5      N5               3.786877      -2.356857       0.264783              2.003929      -1.247195       0.140117
        6      C6               4.770871      -0.156199      -1.135814              2.524636      -0.082657      -0.601047
        7      C7              -5.235197       1.227464      -3.216607             -2.770347       0.649546      -1.702155
        8      C8              -7.006437      -0.219208       1.741951             -3.707647      -0.116000       0.921801
        9      P9              -4.105560       0.390334      -0.050425             -2.172569       0.206556      -0.026684
       10      H10              6.848798      -0.025016      -0.959535              3.624228      -0.013238      -0.507764
       11      C11              4.795736      -2.346686       2.842730              2.537794      -1.241813       1.504308
       12      C12             -1.121008      -2.538533       3.518065             -0.593212      -1.343334       1.861680
       13      C13              3.516134       2.278182      -0.372202              1.860658       1.205562      -0.196961
       14      N14              1.072590       2.055727       0.252518              0.567590       1.087844       0.133627
       15      C15             -3.095935       3.519919       1.322398             -1.638298       1.862661       0.699783
       16      C16             -0.392061       4.084957       0.677272             -0.207470       2.161666       0.358397
       17      C17              4.661571       4.640990      -0.496983              2.466797       2.455906      -0.262992
       18      H18              6.659283       4.805364      -0.978791              3.523941       2.542889      -0.517954
       19      H19             -3.239249       3.245877       3.387370             -1.714137       1.717644       1.792519
       20      H20             -4.354811       5.095331       0.808899             -2.304467       2.696333       0.428051
       21      C21              0.631514       6.508071       0.521513              0.334183       3.443923       0.275973
       22      C22              3.188089       6.776564      -0.043749              1.687064       3.586003      -0.023151
       23      H23             -0.558544       8.157921       0.854564             -0.295569       4.316986       0.452216
       24      H24              4.030986       8.656531      -0.147072              2.133106       4.580839      -0.077827
       25      O25             -1.652505      -3.059882       5.600441             -0.874468      -1.619220       2.963626
       26      H26             -6.459152       2.908090      -3.197530             -3.418036       1.538895      -1.692060
       27      H27             -6.295997      -0.385912      -3.987951             -3.331698      -0.204216      -2.110333
       28      H28             -3.555883       1.516885      -4.407125             -1.881692       0.802701      -2.332150
       29      H29             -6.500348      -0.625634       3.715583             -3.439836      -0.331071       1.966202
       30      H30             -7.924893      -1.906479       0.950502             -4.193673      -1.008865       0.502984
       31      H31             -8.325255       1.387785       1.662745             -4.405535       0.734384       0.879887
       32      H32              3.868853      -6.307307       0.068385              2.047309      -3.337683       0.036188
       33      H33              6.608540      -4.802979      -1.249519              3.497089      -2.541627      -0.661217
       34      H34              3.605571      -4.740057      -2.899099              1.907986      -2.508330      -1.534137
       35      H35              4.246791      -0.588892       3.799304              2.247305      -0.311628       2.010505
       36      H36              6.883080      -2.501293       2.826089              3.642369      -1.323627       1.495502
       37      H37              3.998135      -3.940319       3.901956              2.115722      -2.085127       2.064826
       38      RU38            -0.440119      -1.710922       0.216489             -0.232901      -0.905381       0.114561
       39      H39             -1.906174      -4.059837      -4.700081             -1.008704      -2.148373      -2.487176

                    ************************************************* 
                    **** InterNuclear Distances / Bohr, Angstrom **** 
                    ************************************************* 

     Atom centers         Bohr        Angstrom
   39 H39       1 O1      1.832361        0.969644
   23 H23      21 C21     2.061351        1.090820
   18 H18      17 C17     2.061556        1.090929
   24 H24      22 C22     2.062869        1.091623
   34 H34       3 C3      2.072744        1.096849
   37 H37      11 C11     2.073111        1.097043
   32 H32       3 C3      2.074602        1.097832
   35 H35      11 C11     2.075142        1.098118
   29 H29       8 C8      2.077626        1.099432
   30 H30       8 C8      2.077699        1.099471
   28 H28       7 C7      2.078748        1.100026
   26 H26       7 C7      2.079166        1.100248
   27 H27       7 C7      2.079243        1.100288
   31 H31       8 C8      2.080379        1.100889
   20 H20      15 C15     2.080955        1.101194
    6 C6        4 H4      2.082133        1.101817
   19 H19      15 C15     2.088001        1.104922
   10 H10       6 C6      2.089514        1.105723
   36 H36      11 C11     2.093128        1.107636
   33 H33       3 C3      2.093754        1.107967
   25 O25      12 C12     2.211466        1.170258
   14 N14      13 C13     2.531930        1.339840
   16 C16      14 N14     2.538384        1.343255
   17 C17      13 C13     2.628775        1.391088
   22 C22      21 C21     2.632049        1.392820
   22 C22      17 C17     2.633865        1.393781
   21 C21      16 C16     2.635043        1.394405
    2 O2        1 O1      2.731331        1.445358
   11 C11       5 N5      2.768341        1.464943
    5 N5        3 C3      2.771680        1.466710
    6 C6        5 N5      2.787976        1.475333
   16 C16      15 C15     2.836615        1.501072
   13 C13       6 C6      2.843181        1.504547
   37 H37      35 H35     3.362207        1.779203
   28 H28      27 H27     3.362227        1.779214
   20 H20      19 H19     3.363550        1.779914
   30 H30      29 H29     3.363862        1.780079
   34 H34      32 H32     3.366237        1.781336
   27 H27      26 H26     3.391436        1.794671
   33 H33      32 H32     3.392014        1.794977
   31 H31      30 H30     3.394076        1.796067
   37 H37      36 H36     3.398704        1.798517
   36 H36      35 H35     3.399183        1.798770
   31 H31      29 H29     3.405625        1.802179
   10 H10       4 H4      3.414916        1.807096
   34 H34      33 H33     3.426791        1.813380
   28 H28      26 H26     3.439120        1.819904
    9 P9        8 C8      3.463993        1.833066
    9 P9        7 C7      3.464328        1.833244
   38 RU38     12 C12     3.471161        1.836859
   15 C15       9 P9      3.563466        1.885705
   39 H39       2 O2      3.583728        1.896427
    5 N5        4 H4      3.913453        2.070910
   38 RU38      2 O2      3.947029        2.088678
   13 C13       4 H4      3.953426        2.092063
   32 H32       5 N5      3.956178        2.093519
   34 H34       5 N5      3.965181        2.098283
   37 H37       5 N5      3.972532        2.102173
   35 H35       5 N5      3.978701        2.105438
   19 H19      16 C16     4.019349        2.126948
   36 H36       5 N5      4.020898        2.127768
   33 H33       5 N5      4.029691        2.132420
   10 H10       5 N5      4.038787        2.137234
   38 RU38     14 N14     4.059216        2.148045
   24 H24      21 C21     4.076677        2.157284
   18 H18      13 C13     4.078478        2.158238
   24 H24      17 C17     4.079785        2.158929
   23 H23      16 C16     4.080219        2.159159
   20 H20      16 C16     4.091646        2.165206
   23 H23      22 C22     4.092967        2.165905
   13 C13      10 H10     4.093450        2.166160
   22 C22      18 H18     4.099893        2.169570
   34 H34       1 O1      4.207323        2.226420
   38 RU38      9 P9      4.233436        2.240238
    4 H4        2 O2      4.254507        2.251388
   38 RU38      5 N5      4.276337        2.262940
   34 H34       4 H4      4.332920        2.292883
   16 C16      13 C13     4.431684        2.345146
   21 C21      14 N14     4.482217        2.371887
   17 C17      14 N14     4.486214        2.374002
   37 H37      32 H32     4.507284        2.385152
   22 C22      13 C13     4.522271        2.393083
   36 H36      10 H10     4.523723        2.393851
   14 N14       6 C6      4.527402        2.395798
   28 H28       9 P9      4.533441        2.398994
    6 C6        3 C3      4.536174        2.400440
   22 C22      16 C16     4.536749        2.400744
   11 C11       6 C6      4.541769        2.403401
   11 C11       3 C3      4.543638        2.404390
   15 C15      14 N14     4.545888        2.405580
   19 H19       9 P9      4.552258        2.408951
   21 C21      17 C17     4.556828        2.411370
   30 H30       9 P9      4.567769        2.417159
   27 H27       9 P9      4.572164        2.419485
   29 H29       9 P9      4.577119        2.422107
   31 H31       9 P9      4.662154        2.467106
   26 H26       9 P9      4.667200        2.469776
   28 H28       2 O2      4.667635        2.470006
   13 C13       5 N5      4.686431        2.479953
   36 H36      33 H33     4.688679        2.481142
    4 H4        3 C3      4.718463        2.496903
   24 H24      23 H23     4.723947        2.499805
   24 H24      18 H18     4.736158        2.506267
   20 H20       9 P9      4.789317        2.534397
   33 H33      10 H10     4.792780        2.536230
   18 H18      10 H10     4.834135        2.558114
   17 C17       6 C6      4.840772        2.561626
   21 C21      15 C15     4.844001        2.563335
   23 H23      20 H20     4.877826        2.581234
   11 C11      10 H10     4.905348        2.595798
   32 H32      11 C11     4.923679        2.605499
   34 H34       2 O2      4.980128        2.635370
   35 H35       6 C6      4.981694        2.636199
   33 H33       6 C6      4.998252        2.644961
   26 H26      20 H20     5.026305        2.659806
   36 H36       3 C3      5.028927        2.661194
   37 H37       3 C3      5.029579        2.661539
   34 H34       6 C6      5.047658        2.671105
   36 H36       6 C6      5.065330        2.680457
   29 H29      19 H19     5.072581        2.684294
   33 H33      11 C11     5.105501        2.701715
   35 H35      13 C13     5.114238        2.706338
   17 C17      10 H10     5.173928        2.737925
   14 N14       5 N5      5.180580        2.741445
   22 C22      14 N14     5.181641        2.742007
   21 C21      20 H20     5.190556        2.746724
   21 C21      13 C13     5.197280        2.750282
   10 H10       3 C3      5.206436        2.755127
   17 C17      16 C16     5.217973        2.761233
   14 N14       2 O2      5.237984        2.771822
   14 N14       4 H4      5.275902        2.791887
   33 H33       4 H4      5.287616        2.798086
   16 C16       9 P9      5.288653        2.798635
   23 H23      15 C15     5.307380        2.808544
   18 H18       6 C6      5.311108        2.810517
   37 H37      12 C12     5.321466        2.815999
   38 RU38      1 O1      5.338624        2.825078
   19 H19       8 C8      5.376423        2.845080
   30 H30      27 H27     5.417910        2.867034
   31 H31      26 H26     5.423647        2.870070
    6 C6        2 O2      5.424901        2.870734
   15 C15       8 C8      5.426705        2.871689
   35 H35      14 N14     5.445112        2.881429
   14 N14       9 P9      5.447802        2.882853
   35 H35      10 H10     5.452976        2.885590
    8 C8        7 C7      5.460536        2.889591
   19 H19      14 N14     5.462207        2.890476
    5 N5        2 O2      5.492869        2.906701
   12 C12       9 P9      5.497267        2.909028
   31 H31      20 H20     5.499034        2.909963
   15 C15       7 C7      5.516735        2.919330
   36 H36      32 H32     5.583568        2.954697
   38 RU38      6 C6      5.603597        2.965296
   39 H39      38 RU38    5.642640        2.985956
   38 RU38     13 C13     5.649022        2.989334
   20 H20       7 C7      5.651564        2.990679
   31 H31      15 C15     5.657528        2.993835
   26 H26      15 C15     5.667038        2.998867
--


++    Isotope specification:
      ----------------------

 Center
 Type   Z    A    mass (Da)
 --------------------------
    1   8   16    15.994915
    2   6   12    12.000000
    3   1    1     1.007825
    4   7   14    14.003074
    5   6   12    12.000000
    6  15   31    30.973762
    7   1    1     1.007825
    8   6   12    12.000000
    9   7   14    14.003074
   10   6   12    12.000000
   11   1    1     1.007825
   12   6   12    12.000000
   13   1    1     1.007825
   14   8   16    15.994915
   15   1    1     1.007825
   16  44  102   101.904344
   17   1    1     1.007825
--


++    Rigid rotor info:
      -----------------


                    Total mass (a) : 373.02550

                    Center of mass 
                          X          Y          Z   
                      -0.04652   -0.16695    0.08540

                    Reference system based on center of mass
                    Coordinates and Masses of Atoms, in au and A
                          X          Y          Z        Mass
                      -0.04455   -3.64282   -4.76523   15.99491
                       0.15361   -1.11332   -3.75403   15.99491
                       4.57478   -4.51800   -1.12927   12.00000
                       4.29329   -0.29400   -3.21313    1.00783
                       3.83340   -2.18991    0.17938   14.00307
                       4.81739    0.01075   -1.22122   12.00000
                      -5.18868    1.39441   -3.30201   12.00000
                      -6.95992   -0.05226    1.65655   12.00000
                      -4.05904    0.55728   -0.13583   30.97376
                       6.89532    0.14193   -1.04494    1.00783
                       4.84226   -2.17974    2.75733   12.00000
                      -1.07449   -2.37159    3.43266   12.00000
                       3.56265    2.44513   -0.45761   12.00000
                       1.11911    2.22268    0.16712   14.00307
                      -3.04941    3.68687    1.23700   12.00000
                      -0.34554    4.25190    0.59187   12.00000
                       4.70809    4.80794   -0.58239   12.00000
                       6.70580    4.97231   -1.06419    1.00783
                      -3.19273    3.41282    3.30197    1.00783
                      -4.30829    5.26228    0.72350    1.00783
                       0.67803    6.67502    0.43611   12.00000
                       3.23461    6.94351   -0.12915   12.00000
                      -0.51202    8.32487    0.76916    1.00783
                       4.07751    8.82348   -0.23247    1.00783
                      -1.60599   -2.89293    5.51504   15.99491
                      -6.41263    3.07504   -3.28293    1.00783
                      -6.24948   -0.21896   -4.07335    1.00783
                      -3.50936    1.68383   -4.49253    1.00783
                      -6.45383   -0.45869    3.63018    1.00783
                      -7.87837   -1.73953    0.86510    1.00783
                      -8.27873    1.55473    1.57734    1.00783
                       3.91537   -6.14036   -0.01702    1.00783
                       6.65506   -4.63603   -1.33492    1.00783
                       3.65209   -4.57311   -2.98450    1.00783
                       4.29331   -0.42194    3.71390    1.00783
                       6.92960   -2.33434    2.74069    1.00783
                       4.04466   -3.77337    3.81655    1.00783
                      -0.39360   -1.54397    0.13109  101.90434
                      -1.85965   -3.89289   -4.78548    1.00783

                    The Moment of Inertia Tensor / au
                                     X          Y        Z     
                    X             0.9180E+07
                    Y            -0.3150E+05 0.9965E+07
                    Z             0.2900E+06 0.4223E+05 0.1295E+08

                    The Principal Axes and Moments of Inertia (au)
                    Eigenvalues : 0.1297E+08 0.9966E+07 0.9156E+07
                                     X'         Y'       Z'    
                    Eigenvectors:
                    X             0.7610E-01-0.4369E-01 0.9961E+00
                    Y             0.1319E-01 0.9990E+00 0.4281E-01
                    Z             0.9970E+00-0.9886E-02-0.7660E-01

                    The Rotational Constants
                            (cm-1)            (GHz)
                              0.008            0.254
                              0.011            0.330
                              0.012            0.359


                    *******************************************
                    *                                         *
                    * R I G I D - R O T O R   A N A L Y S I S *
                    *                                         *
                    *******************************************

                    j(Max):  5

                    Rotor Type: Linear Rotor
                    Asymmetry parameter:  0.448
                    Prolate = -1
                    Oblate  =  1


                    Rotational energies / cm-1

                    E(J= 0,kappa= 0) =        0.000

                    E(J= 1,kappa=-1) =        0.019
                    E(J= 1,kappa= 0) =        0.020
                    E(J= 1,kappa= 1) =        0.023

                    E(J= 2,kappa=-2) =        0.057
                    E(J= 2,kappa=-1) =        0.057
                    E(J= 2,kappa= 0) =        0.064
                    E(J= 2,kappa= 1) =        0.067
                    E(J= 2,kappa= 2) =        0.069

                    E(J= 3,kappa=-3) =        0.110
                    E(J= 3,kappa=-2) =        0.110
                    E(J= 3,kappa=-1) =        0.125
                    E(J= 3,kappa= 0) =        0.126
                    E(J= 3,kappa= 1) =        0.132
                    E(J= 3,kappa= 2) =        0.138
                    E(J= 3,kappa= 3) =        0.139

                    E(J= 4,kappa=-4) =        0.181
                    E(J= 4,kappa=-3) =        0.181
                    E(J= 4,kappa=-2) =        0.202
                    E(J= 4,kappa=-1) =        0.202
                    E(J= 4,kappa= 0) =        0.215
                    E(J= 4,kappa= 1) =        0.218
                    E(J= 4,kappa= 2) =        0.223
                    E(J= 4,kappa= 3) =        0.232
                    E(J= 4,kappa= 4) =        0.233

                    E(J= 5,kappa=-5) =        0.269
                    E(J= 5,kappa=-4) =        0.269
                    E(J= 5,kappa=-3) =        0.296
                    E(J= 5,kappa=-2) =        0.296
                    E(J= 5,kappa=-1) =        0.316
                    E(J= 5,kappa= 0) =        0.317
                    E(J= 5,kappa= 1) =        0.328
                    E(J= 5,kappa= 2) =        0.333
                    E(J= 5,kappa= 3) =        0.337
                    E(J= 5,kappa= 4) =        0.350
                    E(J= 5,kappa= 5) =        0.351
--


++    Primitive basis info:
      ---------------------


                    *****************************************************
                    ******** Primitive Basis Functions (Valence) ********
                    *****************************************************


 Basis set:O.ANO-RCC...3S2P.                                                               

                  Type         
                   s
           No.      Exponent    Contraction Coefficients
            1  0.105374950D+06   0.000124  -0.000028   0.000026
            2  0.156792400D+05   0.000512  -0.000116   0.000107
            3  0.353454470D+04   0.002153  -0.000491   0.000460
            4  0.987365160D+03   0.008528  -0.001946   0.001796
            5  0.315978750D+03   0.030180  -0.007005   0.006676
            6  0.111654280D+03   0.090997  -0.021678   0.020534
            7  0.426994510D+02   0.217794  -0.056412   0.058286
            8  0.173955960D+02   0.368625  -0.112705   0.121297
            9  0.743830900D+01   0.336671  -0.158912   0.226415
           10  0.322286200D+01   0.096576  -0.033551  -0.042387
           11  0.125387700D+01   0.002145   0.353190  -1.010455
           12  0.495155000D+00   0.001194   0.553420  -0.153869
           13  0.191665000D+00   0.000539   0.230184   0.993453
           14  0.670830000D-01   0.000210   0.011273   0.185873

                  Type         
                   p
           No.      Exponent    Contraction Coefficients
           15  0.200000000D+03   0.000917  -0.000872
           16  0.465333670D+02   0.007377  -0.007064
           17  0.146218090D+02   0.034835  -0.033305
           18  0.531306400D+01   0.114440  -0.114413
           19  0.210252500D+01   0.255497  -0.299011
           20  0.850223000D+00   0.372256  -0.319861
           21  0.337597000D+00   0.332331   0.205509
           22  0.128892000D+00   0.140085   0.593593
           23  0.451120000D-01   0.023958   0.282290


 Basis set:C.ANO-RCC...3S2P.                                                               

                  Type         
                   s
           No.      Exponent    Contraction Coefficients
           47  0.505575010D+05   0.000113  -0.000025   0.000016
           48  0.752478560D+04   0.000530  -0.000118   0.000075
           49  0.169432760D+04   0.002450  -0.000546   0.000357
           50  0.472822790D+03   0.010054  -0.002245   0.001435
           51  0.151710750D+03   0.035454  -0.008043   0.005509
           52  0.539187460D+02   0.104407  -0.024426   0.016915
           53  0.206593110D+02   0.241289  -0.061368   0.051417
           54  0.838397600D+01   0.383423  -0.117777   0.113734
           55  0.357701500D+01   0.307851  -0.155049   0.233718
           56  0.154711800D+01   0.068724  -0.019333  -0.071838
           57  0.613013000D+00   0.000222   0.399693  -1.049091
           58  0.246068000D+00   0.001977   0.558942  -0.066627
           59  0.990870000D-01   0.002058   0.171120   1.011999
           60  0.346800000D-01   0.000418   0.007456   0.165605

                  Type         
                   p
           No.      Exponent    Contraction Coefficients
           61  0.833331550D+02   0.001345  -0.001772
           62  0.195576110D+02   0.010236  -0.014562
           63  0.608036500D+01   0.045201  -0.057457
           64  0.217931700D+01   0.141076  -0.212658
           65  0.865150000D+00   0.304739  -0.527171
           66  0.361944000D+00   0.399528  -0.092970
           67  0.154740000D+00   0.271916   0.663003
           68  0.654290000D-01   0.058577   0.336088
           69  0.229000000D-01  -0.000126   0.005470


 Basis set:H.ANO-RCC...2S.                                                                 

                  Type         
                   s
           No.      Exponent    Contraction Coefficients
           70  0.188614450D+03   0.000964  -0.001312
           71  0.282765960D+02   0.007492  -0.010345
           72  0.642483000D+01   0.037595  -0.050495
           73  0.181504100D+01   0.143395  -0.207386
           74  0.591063000D+00   0.348636  -0.435088
           75  0.212149000D+00   0.438297  -0.024730
           76  0.798910000D-01   0.165107   0.322526
           77  0.279620000D-01   0.021023   0.707275


 Basis set:N.ANO-RCC...3S2P.                                                               

                  Type         
                   s
           No.      Exponent    Contraction Coefficients
           78  0.747617150D+05   0.000118  -0.000027   0.000019
           79  0.111236540D+05   0.000517  -0.000118   0.000081
           80  0.251268570D+04   0.002267  -0.000520   0.000366
           81  0.703777290D+03   0.009145  -0.002103   0.001443
           82  0.225478790D+03   0.032393  -0.007568   0.005532
           83  0.796158100D+02   0.097708  -0.023468   0.017244
           84  0.302372830D+02   0.231704  -0.060429   0.052795
           85  0.122636220D+02   0.376890  -0.117055   0.115288
           86  0.526508600D+01   0.317742  -0.155532   0.235259
           87  0.233347100D+01   0.082113  -0.024689  -0.048964
           88  0.901856000D+00   0.003312   0.362505  -1.023218
           89  0.358336000D+00   0.003721   0.555084  -0.148159
           90  0.141093000D+00   0.003165   0.214838   1.021558
           91  0.493830000D-01   0.000460   0.008984   0.172402

                  Type         
                   p
           No.      Exponent    Contraction Coefficients
           92  0.126666570D+03   0.001234  -0.001466
           93  0.298373890D+02   0.009493  -0.011821
           94  0.939403800D+01   0.042940  -0.049831
           95  0.340510400D+01   0.136293  -0.173090
           96  0.135000000D+01   0.292136  -0.473237
           97  0.557696000D+00   0.388789  -0.205511
           98  0.232449000D+00   0.294680   0.591038
           99  0.942640000D-01   0.080129   0.451180
          100  0.329920000D-01   0.000541   0.013675


 Basis set:C.ANO-RCC...3S2P.                                                               

                  Type         
                   s
           No.      Exponent    Contraction Coefficients
          101  0.505575010D+05   0.000113  -0.000025   0.000016
          102  0.752478560D+04   0.000530  -0.000118   0.000075
          103  0.169432760D+04   0.002450  -0.000546   0.000357
          104  0.472822790D+03   0.010054  -0.002245   0.001435
          105  0.151710750D+03   0.035454  -0.008043   0.005509
          106  0.539187460D+02   0.104407  -0.024426   0.016915
          107  0.206593110D+02   0.241289  -0.061368   0.051417
          108  0.838397600D+01   0.383423  -0.117777   0.113734
          109  0.357701500D+01   0.307851  -0.155049   0.233718
          110  0.154711800D+01   0.068724  -0.019333  -0.071838
          111  0.613013000D+00   0.000222   0.399693  -1.049091
          112  0.246068000D+00   0.001977   0.558942  -0.066627
          113  0.990870000D-01   0.002058   0.171120   1.011999
          114  0.346800000D-01   0.000418   0.007456   0.165605

                  Type         
                   p
           No.      Exponent    Contraction Coefficients
          115  0.833331550D+02   0.001345  -0.001772
          116  0.195576110D+02   0.010236  -0.014562
          117  0.608036500D+01   0.045201  -0.057457
          118  0.217931700D+01   0.141076  -0.212658
          119  0.865150000D+00   0.304739  -0.527171
          120  0.361944000D+00   0.399528  -0.092970
          121  0.154740000D+00   0.271916   0.663003
          122  0.654290000D-01   0.058577   0.336088
          123  0.229000000D-01  -0.000126   0.005470


 Basis set:P.ANO-RCC...4S3P.                                                               

                  Type         
                   s
           No.      Exponent    Contraction Coefficients
          170  0.296647550D+06  -0.000278   0.000066   0.000042  -0.000021
          171  0.423800300D+05  -0.000920   0.000218   0.000140  -0.000069
          172  0.125038560D+05  -0.002112   0.000503   0.000324  -0.000158
          173  0.442249370D+04  -0.006118   0.001461   0.000938  -0.000457
          174  0.168184780D+04  -0.017156   0.004147   0.002667  -0.001290
          175  0.663214900D+03  -0.048906   0.012039   0.007700  -0.003702
          176  0.267005850D+03  -0.128061   0.033290   0.021236  -0.009969
          177  0.108895920D+03  -0.280856   0.081855   0.051433  -0.023169
          178  0.447973140D+02  -0.408791   0.158144   0.097900  -0.040366
          179  0.185403120D+02  -0.239938   0.141889   0.085829  -0.033441
          180  0.770709950D+01  -0.020129  -0.179413  -0.105386   0.039743
          181  0.321437500D+01  -0.005211  -0.551931  -0.405333   0.236354
          182  0.134401270D+01  -0.001161  -0.269939  -0.366796   0.478799
          183  0.563087000D+00   0.003590  -0.048811   0.252762  -0.852342
          184  0.236287000D+00   0.014643  -0.145579   0.631092  -1.009743
          185  0.992811000D-01   0.006883  -0.080411   0.309338   1.172316
          186  0.397124000D-01   0.000538  -0.008907   0.021962   0.410274

                  Type         
                   p
           No.      Exponent    Contraction Coefficients
          187  0.101841220D+04   0.000823  -0.000196   0.000196
          188  0.247398200D+03   0.005507  -0.001308   0.001270
          189  0.877904820D+02   0.023423  -0.005636   0.005713
          190  0.342486000D+02   0.085691  -0.020859   0.020321
          191  0.138770140D+02   0.228880  -0.057676   0.059638
          192  0.573030980D+01   0.397112  -0.102511   0.099600
          193  0.239200680D+01   0.367905  -0.105932   0.125349
          194  0.100527670D+01   0.105637   0.060910  -0.109693
          195  0.424392900D+00  -0.000359   0.393662  -0.721429
          196  0.179730600D+00  -0.000516   0.471351  -0.003709
          197  0.762910000D-01  -0.001324   0.204967   0.646806
          198  0.305164000D-01   0.000005   0.030803   0.374610


 Basis set:H.ANO-RCC...2S.                                                                 

                  Type         
                   s
           No.      Exponent    Contraction Coefficients
          199  0.188614450D+03   0.000964  -0.001312
          200  0.282765960D+02   0.007492  -0.010345
          201  0.642483000D+01   0.037595  -0.050495
          202  0.181504100D+01   0.143395  -0.207386
          203  0.591063000D+00   0.348636  -0.435088
          204  0.212149000D+00   0.438297  -0.024730
          205  0.798910000D-01   0.165107   0.322526
          206  0.279620000D-01   0.021023   0.707275


 Basis set:C.ANO-RCC...3S2P.                                                               

                  Type         
                   s
           No.      Exponent    Contraction Coefficients
          207  0.505575010D+05   0.000113  -0.000025   0.000016
          208  0.752478560D+04   0.000530  -0.000118   0.000075
          209  0.169432760D+04   0.002450  -0.000546   0.000357
          210  0.472822790D+03   0.010054  -0.002245   0.001435
          211  0.151710750D+03   0.035454  -0.008043   0.005509
          212  0.539187460D+02   0.104407  -0.024426   0.016915
          213  0.206593110D+02   0.241289  -0.061368   0.051417
          214  0.838397600D+01   0.383423  -0.117777   0.113734
          215  0.357701500D+01   0.307851  -0.155049   0.233718
          216  0.154711800D+01   0.068724  -0.019333  -0.071838
          217  0.613013000D+00   0.000222   0.399693  -1.049091
          218  0.246068000D+00   0.001977   0.558942  -0.066627
          219  0.990870000D-01   0.002058   0.171120   1.011999
          220  0.346800000D-01   0.000418   0.007456   0.165605

                  Type         
                   p
           No.      Exponent    Contraction Coefficients
          221  0.833331550D+02   0.001345  -0.001772
          222  0.195576110D+02   0.010236  -0.014562
          223  0.608036500D+01   0.045201  -0.057457
          224  0.217931700D+01   0.141076  -0.212658
          225  0.865150000D+00   0.304739  -0.527171
          226  0.361944000D+00   0.399528  -0.092970
          227  0.154740000D+00   0.271916   0.663003
          228  0.654290000D-01   0.058577   0.336088
          229  0.229000000D-01  -0.000126   0.005470


 Basis set:N.ANO-RCC...3S2P.                                                               

                  Type         
                   s
           No.      Exponent    Contraction Coefficients
          276  0.747617150D+05   0.000118  -0.000027   0.000019
          277  0.111236540D+05   0.000517  -0.000118   0.000081
          278  0.251268570D+04   0.002267  -0.000520   0.000366
          279  0.703777290D+03   0.009145  -0.002103   0.001443
          280  0.225478790D+03   0.032393  -0.007568   0.005532
          281  0.796158100D+02   0.097708  -0.023468   0.017244
          282  0.302372830D+02   0.231704  -0.060429   0.052795
          283  0.122636220D+02   0.376890  -0.117055   0.115288
          284  0.526508600D+01   0.317742  -0.155532   0.235259
          285  0.233347100D+01   0.082113  -0.024689  -0.048964
          286  0.901856000D+00   0.003312   0.362505  -1.023218
          287  0.358336000D+00   0.003721   0.555084  -0.148159
          288  0.141093000D+00   0.003165   0.214838   1.021558
          289  0.493830000D-01   0.000460   0.008984   0.172402

                  Type         
                   p
           No.      Exponent    Contraction Coefficients
          290  0.126666570D+03   0.001234  -0.001466
          291  0.298373890D+02   0.009493  -0.011821
          292  0.939403800D+01   0.042940  -0.049831
          293  0.340510400D+01   0.136293  -0.173090
          294  0.135000000D+01   0.292136  -0.473237
          295  0.557696000D+00   0.388789  -0.205511
          296  0.232449000D+00   0.294680   0.591038
          297  0.942640000D-01   0.080129   0.451180
          298  0.329920000D-01   0.000541   0.013675


 Basis set:C.ANO-RCC...3S2P.                                                               

                  Type         
                   s
           No.      Exponent    Contraction Coefficients
          299  0.505575010D+05   0.000113  -0.000025   0.000016
          300  0.752478560D+04   0.000530  -0.000118   0.000075
          301  0.169432760D+04   0.002450  -0.000546   0.000357
          302  0.472822790D+03   0.010054  -0.002245   0.001435
          303  0.151710750D+03   0.035454  -0.008043   0.005509
          304  0.539187460D+02   0.104407  -0.024426   0.016915
          305  0.206593110D+02   0.241289  -0.061368   0.051417
          306  0.838397600D+01   0.383423  -0.117777   0.113734
          307  0.357701500D+01   0.307851  -0.155049   0.233718
          308  0.154711800D+01   0.068724  -0.019333  -0.071838
          309  0.613013000D+00   0.000222   0.399693  -1.049091
          310  0.246068000D+00   0.001977   0.558942  -0.066627
          311  0.990870000D-01   0.002058   0.171120   1.011999
          312  0.346800000D-01   0.000418   0.007456   0.165605

                  Type         
                   p
           No.      Exponent    Contraction Coefficients
          313  0.833331550D+02   0.001345  -0.001772
          314  0.195576110D+02   0.010236  -0.014562
          315  0.608036500D+01   0.045201  -0.057457
          316  0.217931700D+01   0.141076  -0.212658
          317  0.865150000D+00   0.304739  -0.527171
          318  0.361944000D+00   0.399528  -0.092970
          319  0.154740000D+00   0.271916   0.663003
          320  0.654290000D-01   0.058577   0.336088
          321  0.229000000D-01  -0.000126   0.005470


 Basis set:H.ANO-RCC...2S.                                                                 

                  Type         
                   s
           No.      Exponent    Contraction Coefficients
          368  0.188614450D+03   0.000964  -0.001312
          369  0.282765960D+02   0.007492  -0.010345
          370  0.642483000D+01   0.037595  -0.050495
          371  0.181504100D+01   0.143395  -0.207386
          372  0.591063000D+00   0.348636  -0.435088
          373  0.212149000D+00   0.438297  -0.024730
          374  0.798910000D-01   0.165107   0.322526
          375  0.279620000D-01   0.021023   0.707275


 Basis set:C.ANO-RCC...3S2P.                                                               

                  Type         
                   s
           No.      Exponent    Contraction Coefficients
          392  0.505575010D+05   0.000113  -0.000025   0.000016
          393  0.752478560D+04   0.000530  -0.000118   0.000075
          394  0.169432760D+04   0.002450  -0.000546   0.000357
          395  0.472822790D+03   0.010054  -0.002245   0.001435
          396  0.151710750D+03   0.035454  -0.008043   0.005509
          397  0.539187460D+02   0.104407  -0.024426   0.016915
          398  0.206593110D+02   0.241289  -0.061368   0.051417
          399  0.838397600D+01   0.383423  -0.117777   0.113734
          400  0.357701500D+01   0.307851  -0.155049   0.233718
          401  0.154711800D+01   0.068724  -0.019333  -0.071838
          402  0.613013000D+00   0.000222   0.399693  -1.049091
          403  0.246068000D+00   0.001977   0.558942  -0.066627
          404  0.990870000D-01   0.002058   0.171120   1.011999
          405  0.346800000D-01   0.000418   0.007456   0.165605

                  Type         
                   p
           No.      Exponent    Contraction Coefficients
          406  0.833331550D+02   0.001345  -0.001772
          407  0.195576110D+02   0.010236  -0.014562
          408  0.608036500D+01   0.045201  -0.057457
          409  0.217931700D+01   0.141076  -0.212658
          410  0.865150000D+00   0.304739  -0.527171
          411  0.361944000D+00   0.399528  -0.092970
          412  0.154740000D+00   0.271916   0.663003
          413  0.654290000D-01   0.058577   0.336088
          414  0.229000000D-01  -0.000126   0.005470


 Basis set:H.ANO-RCC...2S.                                                                 

                  Type         
                   s
           No.      Exponent    Contraction Coefficients
          438  0.188614450D+03   0.000964  -0.001312
          439  0.282765960D+02   0.007492  -0.010345
          440  0.642483000D+01   0.037595  -0.050495
          441  0.181504100D+01   0.143395  -0.207386
          442  0.591063000D+00   0.348636  -0.435088
          443  0.212149000D+00   0.438297  -0.024730
          444  0.798910000D-01   0.165107   0.322526
          445  0.279620000D-01   0.021023   0.707275


 Basis set:O.ANO-RCC...3S2P.                                                               

                  Type         
                   s
           No.      Exponent    Contraction Coefficients
          454  0.105374950D+06   0.000124  -0.000028   0.000026
          455  0.156792400D+05   0.000512  -0.000116   0.000107
          456  0.353454470D+04   0.002153  -0.000491   0.000460
          457  0.987365160D+03   0.008528  -0.001946   0.001796
          458  0.315978750D+03   0.030180  -0.007005   0.006676
          459  0.111654280D+03   0.090997  -0.021678   0.020534
          460  0.426994510D+02   0.217794  -0.056412   0.058286
          461  0.173955960D+02   0.368625  -0.112705   0.121297
          462  0.743830900D+01   0.336671  -0.158912   0.226415
          463  0.322286200D+01   0.096576  -0.033551  -0.042387
          464  0.125387700D+01   0.002145   0.353190  -1.010455
          465  0.495155000D+00   0.001194   0.553420  -0.153869
          466  0.191665000D+00   0.000539   0.230184   0.993453
          467  0.670830000D-01   0.000210   0.011273   0.185873

                  Type         
                   p
           No.      Exponent    Contraction Coefficients
          468  0.200000000D+03   0.000917  -0.000872
          469  0.465333670D+02   0.007377  -0.007064
          470  0.146218090D+02   0.034835  -0.033305
          471  0.531306400D+01   0.114440  -0.114413
          472  0.210252500D+01   0.255497  -0.299011
          473  0.850223000D+00   0.372256  -0.319861
          474  0.337597000D+00   0.332331   0.205509
          475  0.128892000D+00   0.140085   0.593593
          476  0.451120000D-01   0.023958   0.282290


 Basis set:H.ANO-RCC...2S.                                                                 

                  Type         
                   s
           No.      Exponent    Contraction Coefficients
          477  0.188614450D+03   0.000964  -0.001312
          478  0.282765960D+02   0.007492  -0.010345
          479  0.642483000D+01   0.037595  -0.050495
          480  0.181504100D+01   0.143395  -0.207386
          481  0.591063000D+00   0.348636  -0.435088
          482  0.212149000D+00   0.438297  -0.024730
          483  0.798910000D-01   0.165107   0.322526
          484  0.279620000D-01   0.021023   0.707275


 Basis set:RU.ANO-RCC...6S5P3D.                                                            

                  Type         
                   s
           No.      Exponent    Contraction Coefficients
          573  0.240082896D+08   0.000211  -0.000071   0.000030  -0.000012   0.000003  -0.000004
          574  0.333598099D+07   0.000629  -0.000211   0.000090  -0.000037   0.000009  -0.000013
          575  0.671907416D+06   0.001790  -0.000602   0.000258  -0.000104   0.000027  -0.000036
          576  0.167149978D+06   0.004624  -0.001562   0.000669  -0.000271   0.000070  -0.000094
          577  0.483819012D+05   0.011573  -0.003941   0.001691  -0.000685   0.000177  -0.000237
          578  0.157041609D+05   0.028678  -0.009929   0.004269  -0.001726   0.000444  -0.000595
          579  0.557449458D+04   0.070513  -0.025133   0.010854  -0.004407   0.001138  -0.001534
          580  0.212159631D+04   0.163345  -0.062218   0.027110  -0.010968   0.002819  -0.003768
          581  0.851853314D+03   0.313022  -0.136572   0.060764  -0.024870   0.006438  -0.008719
          582  0.357061668D+03   0.381626  -0.222209   0.103280  -0.042096   0.010793  -0.014335
          583  0.154188376D+03   0.185094  -0.113776   0.056435  -0.024478   0.006543  -0.009313
          584  0.658210557D+02   0.011364   0.428140  -0.286404   0.129152  -0.034315   0.047991
          585  0.299216525D+02   0.002334   0.611083  -0.606633   0.281288  -0.072737   0.096103
          586  0.137645551D+02  -0.001765   0.139294   0.067511  -0.022839   0.002327  -0.000112
          587  0.632318098D+01   0.001077   0.006543   0.894943  -0.761252   0.228798  -0.336974
          588  0.286808667D+01  -0.000620  -0.001507   0.316186  -0.322278   0.081582  -0.086654
          589  0.121046730D+01   0.000300   0.000831  -0.003571   0.976106  -0.364392   0.681486
          590  0.474729190D+00  -0.000130  -0.000477   0.005441   0.444214  -0.371157   0.166685
          591  0.165217160D+00   0.000053   0.000193  -0.001837  -0.011142   0.421699  -1.067480
          592  0.505418800D-01  -0.000023  -0.000089   0.000829   0.012353   0.723292  -0.389261
          593  0.202167500D-01   0.000009   0.000032  -0.000295  -0.003091   0.121848   1.258975

                  Type         
                   p
           No.      Exponent    Contraction Coefficients
          594  0.581160979D+06   0.000035  -0.000016   0.000006  -0.000002   0.000006
          595  0.849507118D+05   0.000158  -0.000070   0.000027  -0.000010   0.000026
          596  0.188156282D+05   0.000676  -0.000301   0.000114  -0.000044   0.000113
          597  0.540518171D+04   0.002801  -0.001250   0.000474  -0.000182   0.000462
          598  0.186673392D+04   0.010947  -0.004927   0.001881  -0.000726   0.001869
          599  0.732162845D+03   0.038371  -0.017518   0.006665  -0.002556   0.006499
          600  0.314126008D+03   0.112250  -0.052985   0.020415  -0.007896   0.020423
          601  0.143665970D+03   0.250791  -0.124026   0.047782  -0.018338   0.046693
          602  0.686311581D+02   0.377479  -0.199286   0.078867  -0.030753   0.080318
          603  0.337373411D+02   0.302653  -0.121097   0.041747  -0.015224   0.035386
          604  0.164568246D+02   0.089933   0.240936  -0.122381   0.049119  -0.141664
          605  0.807731060D+01   0.004153   0.544521  -0.315925   0.130231  -0.338543
          606  0.400079628D+01   0.001293   0.325022  -0.144214   0.054204  -0.139581
          607  0.180382157D+01  -0.000502   0.040459   0.454830  -0.264691   1.246980
          608  0.808086240D+00   0.000197  -0.000829   0.580319  -0.293779  -0.374695
          609  0.328931230D+00  -0.000107   0.000805   0.165139   0.189237  -0.968468
          610  0.131572490D+00   0.000045  -0.000274  -0.002135   0.605091   0.161666
          611  0.526289900D-01  -0.000014   0.000078   0.002432   0.377313   0.631744

                  Type         
                   d
           No.      Exponent    Contraction Coefficients
          612  0.851853314D+03   0.001085  -0.000323   0.000374
          613  0.357061668D+03   0.003980  -0.001167   0.001146
          614  0.154188376D+03   0.022867  -0.006841   0.007774
          615  0.658210557D+02   0.086481  -0.025878   0.026764
          616  0.299216525D+02   0.225653  -0.068936   0.078381
          617  0.137645551D+02   0.386845  -0.113078   0.113145
          618  0.632318098D+01   0.372310  -0.091196   0.124455
          619  0.286808667D+01   0.140762   0.131707  -0.232861
          620  0.121046730D+01   0.011589   0.416983  -0.606611
          621  0.474729190D+00   0.000728   0.452520   0.194294
          622  0.165217160D+00  -0.000016   0.232336   0.625342
          623  0.660868600D-01   0.000082   0.021003   0.171283
          624  0.264347500D-01  -0.000023   0.009222   0.046984


 Basis set:H.ANO-RCC...2S.                                                                 

                  Type         
                   s
           No.      Exponent    Contraction Coefficients
          625  0.188614450D+03   0.000964  -0.001312
          626  0.282765960D+02   0.007492  -0.010345
          627  0.642483000D+01   0.037595  -0.050495
          628  0.181504100D+01   0.143395  -0.207386
          629  0.591063000D+00   0.348636  -0.435088
          630  0.212149000D+00   0.438297  -0.024730
          631  0.798910000D-01   0.165107   0.322526
          632  0.279620000D-01   0.021023   0.707275

  Number of primitives                                 1050
  Number of basis functions                             242

--


++    SO/AO info:
      -----------

                    **************************************************
                    ********** Petite list Basis Functions ***********
                    **************************************************


           Basis functions generated by E  

 Basis Label        Type   Center
    1  O1            1s       1
    2  O1            2s       1
    3  O1            3s       1
    4  O1            2px      1
    5  O1            3px      1
    6  O1            2py      1
    7  O1            3py      1
    8  O1            2pz      1
    9  O1            3pz      1
   10  O2            1s       2
   11  O2            2s       2
   12  O2            3s       2
   13  O2            2px      2
   14  O2            3px      2
   15  O2            2py      2
   16  O2            3py      2
   17  O2            2pz      2
   18  O2            3pz      2
   19  C3            1s       3
   20  C3            2s       3
   21  C3            3s       3
   22  C3            2px      3
   23  C3            3px      3
   24  C3            2py      3
   25  C3            3py      3
   26  C3            2pz      3
   27  C3            3pz      3
   28  H4            1s       4
   29  H4            2s       4
   30  N5            1s       5
   31  N5            2s       5
   32  N5            3s       5
   33  N5            2px      5
   34  N5            3px      5
   35  N5            2py      5
   36  N5            3py      5
   37  N5            2pz      5
   38  N5            3pz      5
   39  C6            1s       6
   40  C6            2s       6
   41  C6            3s       6
   42  C6            2px      6
   43  C6            3px      6
   44  C6            2py      6
   45  C6            3py      6
   46  C6            2pz      6
   47  C6            3pz      6
   48  C7            1s       7
   49  C7            2s       7
   50  C7            3s       7
   51  C7            2px      7
   52  C7            3px      7
   53  C7            2py      7
   54  C7            3py      7
   55  C7            2pz      7
   56  C7            3pz      7
   57  C8            1s       8
   58  C8            2s       8
   59  C8            3s       8
   60  C8            2px      8
   61  C8            3px      8
   62  C8            2py      8
   63  C8            3py      8
   64  C8            2pz      8
   65  C8            3pz      8
   66  P9            1s       9
   67  P9            2s       9
   68  P9            3s       9
   69  P9            4s       9
   70  P9            2px      9
   71  P9            3px      9
   72  P9            4px      9
   73  P9            2py      9
   74  P9            3py      9
   75  P9            4py      9
   76  P9            2pz      9
   77  P9            3pz      9
   78  P9            4pz      9
   79  H10           1s      10
   80  H10           2s      10
   81  C11           1s      11
   82  C11           2s      11
   83  C11           3s      11
   84  C11           2px     11
   85  C11           3px     11
   86  C11           2py     11
   87  C11           3py     11
   88  C11           2pz     11
   89  C11           3pz     11
   90  C12           1s      12
   91  C12           2s      12
   92  C12           3s      12
   93  C12           2px     12
   94  C12           3px     12
   95  C12           2py     12
   96  C12           3py     12
   97  C12           2pz     12
   98  C12           3pz     12
   99  C13           1s      13
  100  C13           2s      13
  101  C13           3s      13
  102  C13           2px     13
  103  C13           3px     13
  104  C13           2py     13
  105  C13           3py     13
  106  C13           2pz     13
  107  C13           3pz     13
  108  N14           1s      14
  109  N14           2s      14
  110  N14           3s      14
  111  N14           2px     14
  112  N14           3px     14
  113  N14           2py     14
  114  N14           3py     14
  115  N14           2pz     14
  116  N14           3pz     14
  117  C15           1s      15
  118  C15           2s      15
  119  C15           3s      15
  120  C15           2px     15
  121  C15           3px     15
  122  C15           2py     15
  123  C15           3py     15
  124  C15           2pz     15
  125  C15           3pz     15
  126  C16           1s      16
  127  C16           2s      16
  128  C16           3s      16
  129  C16           2px     16
  130  C16           3px     16
  131  C16           2py     16
  132  C16           3py     16
  133  C16           2pz     16
  134  C16           3pz     16
  135  C17           1s      17
  136  C17           2s      17
  137  C17           3s      17
  138  C17           2px     17
  139  C17           3px     17
  140  C17           2py     17
  141  C17           3py     17
  142  C17           2pz     17
  143  C17           3pz     17
  144  H18           1s      18
  145  H18           2s      18
  146  H19           1s      19
  147  H19           2s      19
  148  H20           1s      20
  149  H20           2s      20
  150  C21           1s      21
  151  C21           2s      21
  152  C21           3s      21
  153  C21           2px     21
  154  C21           3px     21
  155  C21           2py     21
  156  C21           3py     21
  157  C21           2pz     21
  158  C21           3pz     21
  159  C22           1s      22
  160  C22           2s      22
  161  C22           3s      22
  162  C22           2px     22
  163  C22           3px     22
  164  C22           2py     22
  165  C22           3py     22
  166  C22           2pz     22
  167  C22           3pz     22
  168  H23           1s      23
  169  H23           2s      23
  170  H24           1s      24
  171  H24           2s      24
  172  O25           1s      25
  173  O25           2s      25
  174  O25           3s      25
  175  O25           2px     25
  176  O25           3px     25
  177  O25           2py     25
  178  O25           3py     25
  179  O25           2pz     25
  180  O25           3pz     25
  181  H26           1s      26
  182  H26           2s      26
  183  H27           1s      27
  184  H27           2s      27
  185  H28           1s      28
  186  H28           2s      28
  187  H29           1s      29
  188  H29           2s      29
  189  H30           1s      30
  190  H30           2s      30
  191  H31           1s      31
  192  H31           2s      31
  193  H32           1s      32
  194  H32           2s      32
  195  H33           1s      33
  196  H33           2s      33
  197  H34           1s      34
  198  H34           2s      34
  199  H35           1s      35
  200  H35           2s      35
  201  H36           1s      36
  202  H36           2s      36
  203  H37           1s      37
  204  H37           2s      37
  205  RU38          1s      38
  206  RU38          2s      38
  207  RU38          3s      38
  208  RU38          4s      38
  209  RU38          5s      38
  210  RU38          6s      38
  211  RU38          2px     38
  212  RU38          3px     38
  213  RU38          4px     38
  214  RU38          5px     38
  215  RU38          6px     38
  216  RU38          2py     38
  217  RU38          3py     38
  218  RU38          4py     38
  219  RU38          5py     38
  220  RU38          6py     38
  221  RU38          2pz     38
  222  RU38          3pz     38
  223  RU38          4pz     38
  224  RU38          5pz     38
  225  RU38          6pz     38
  226  RU38          3d2-    38
  227  RU38          4d2-    38
  228  RU38          5d2-    38
  229  RU38          3d1-    38
  230  RU38          4d1-    38
  231  RU38          5d1-    38
  232  RU38          3d0     38
  233  RU38          4d0     38
  234  RU38          5d0     38
  235  RU38          3d1+    38
  236  RU38          4d1+    38
  237  RU38          5d1+    38
  238  RU38          3d2+    38
  239  RU38          4d2+    38
  240  RU38          5d2+    38
  241  H39           1s      39
  242  H39           2s      39

      Basis set specifications :
      Symmetry species        a  
      Basis functions         242
--


            Nuclear Potential Energy           2709.55878403 au

--- Stop Module: gateway at Thu Jul 23 16:53:00 2020 /rc=_RC_ALL_IS_WELL_ ---
*** files: GMe-Cis-OOScan6-D0-VDZ-SA-CAS1311-Pi-PCM.RICDLib xmldump
    saved to directory /home/ubuntu/newcas/build/calc/200723
--- Module gateway spent 21 seconds ---

--- Start Module: seward at Thu Jul 23 16:53:00 2020 ---

()()()()()()()()()()()()()()()()()()()()()()()()()()()()()()()()()()()()()()()()()()()()()()()()()()

                                              &SEWARD

                                   only a single process is used
                       available to each process: 20 GB of memory, 16 threads
                                             pid: 31446
()()()()()()()()()()()()()()()()()()()()()()()()()()()()()()()()()()()()()()()()()()()()()()()()()()


[...]
        P9           RU38           1.997  |   P9           C15            0.999
        C11          H35            1.000  |   C13          N14            1.944
        C11          H36            1.000  |   N14          C16            1.946
        C11          H37            1.000  |   C16          C21            0.997
        C12          O25            2.993  |   C3           N5             0.972
        C12          RU38           2.000  |   N5           C6             0.971
        N14          RU38           1.000  |   C8           P9             0.939
      -------------------------------------------------------------------------------------
      NBO located     89.997 core electrons.
      NBO located      7.513 lone pair electrons.
      NBO located     91.490 electrons involved in   40 bonds.
--

--


  Input file to MOLDEN was generated!


  Input file to MOLDEN was generated!


  Input file to MOLDEN was generated!


  Input file to MOLDEN was generated!


  Input file to MOLDEN was generated!


  Input file to MOLDEN was generated!

      Average orbitals are written to the RASORB file
      Natural orbitals for root   1 are written to the RASORB.1 file
      Natural orbitals for root   2 are written to the RASORB.2 file
      Natural orbitals for root   3 are written to the RASORB.3 file
      Natural orbitals for root   4 are written to the RASORB.4 file
      Natural orbitals for root   5 are written to the RASORB.5 file
      Spin density orbitals for root   1 are written to the SPDORB.1 file
      Spin density orbitals for root   2 are written to the SPDORB.2 file
      Spin density orbitals for root   3 are written to the SPDORB.3 file
      Spin density orbitals for root   4 are written to the SPDORB.4 file
      Spin density orbitals for root   5 are written to the SPDORB.5 file


  Timings
  -------

  - - - - - - - - - - - - - - - - - - - - - - - - - - - - - - - - - -
                                                    time    fraction
  - - - - - - - - - - - - - - - - - - - - - - - - - - - - - - - - - -
  1) Input section                         :        0.73        0.00
     - Input processing                    :        0.73        0.00
     - Create GUGA tables                  :        0.00        0.00
     - Create determinant tables           :        0.00        0.00
  2) Wave function optimization            :     4225.76        0.98
     - transformation section              :      473.25        0.11
       . AO=>MO integral transformation    :        0.00        0.00
       . Fock-matrix generation            :        0.00        0.00
     - CI optimization                     :     3727.56        0.87
       . construct Hdiag                   :        3.14        0.00
       . construct Hsel                    :        7.57        0.00
       . Davidson diagonalization          :      928.47        0.22
         .. sigma vector generation        :      822.46        0.19
            |-> aa/bb 1-electron           :        7.26        0.00
            |-> aa/bb 2-electron           :       33.71        0.01
            \-> alpha-beta                 :       57.23        0.01
                |-> C prefetch             :        2.05        0.00
                |-> matrix multiply        :       53.00        0.01
                \-> S scatter              :        1.21        0.00
         .. HCSCE                          :        0.77        0.00
         .. page_in/page_out               :       62.09        0.01
       . density matrix generation         :     4237.42        0.98
            |-> aa/bb 1-electron           :        5.53        0.00
            |-> aa/bb 2-electron           :       29.22        0.01
            \-> alpha-beta                 :       61.72        0.01
     - orbital optimization                :       24.55        0.01
  3) Output section                        :       80.00        0.02
     - Create/update the file RELAX        :       68.36        0.02
     - Create/update the file RUNFILE      :        0.00        0.00
     - Create/update the file JOBIPH       :       11.64        0.00

  - - - - - - - - - - - - - - - - - - - - - - - - - - - - - - - - - -
     Total                                 :     4306.49        0.00
  - - - - - - - - - - - - - - - - - - - - - - - - - - - - - - - - - -

++ I/O STATISTICS
 
  I. General I/O information
  - - - - - - - - - - - - - - - - - - - - - - - - - - - - - - - - - - - - - - - - - - -
  Unit  Name          Flsize      Write/Read            MBytes           Write/Read
                      (MBytes)       Calls              In/Out           Time, sec.
  - - - - - - - - - - - - - - - - - - - - - - - - - - - - - - - - - - - - - - - - - - -
   1  RUNFILE          29.83 .   10794/   91971 .    175.7/    871.7 .       0/       0
   2  ONEINT            0.00 .     122/   10143 .     96.1/    809.5 .       0/       0
   3  TRAINT            0.00 .      62/      59 .     83.1/     79.1 .       0/       0
   4  TEMP01            0.00 .       0/       0 .      0.0/      0.0 .       0/       0
   5  TEMP02            0.00 .     282/    3024 .     32.8/    351.7 .       0/       0
   6  JOBIPH            0.00 .    1825/    1191 .    280.1/    539.2 .       0/       0
   7  CHRED             0.48 .       0/     128 .      0.0/     15.2 .       0/       0
   8  CHVEC1          203.91 .       0/    2294 .      0.0/  12642.6 .       0/       2
   9  CHORST            0.03 .       0/      12 .      0.0/      0.0 .       0/       0
  10  CHOMAP            0.01 .       0/       0 .      0.0/      0.0 .       0/       0
  11  CIDIA            11.63 .     598/     598 .     82.6/     82.6 .       0/       0
  12  LUCVECT           5.82 .    8512/   12964 .   1237.7/   2100.8 .       0/       0
  13  HCFILE            1.16 .    2576/    1942 .    374.6/    374.6 .       0/       0
  14  LUSC1             2.33 .    5476/    8108 .    700.3/   1202.8 .       0/       0
  15  LUSC2             2.33 .    2130/    2860 .    261.7/    383.9 .       0/       0
  16  LUSC3             2.33 .    1650/    1650 .    191.9/    191.9 .       0/       0
  17  LUSC34            1.16 .    5936/    6354 .    863.1/   1231.9 .       0/       0
  18  LUSC35            0.00 .       0/       0 .      0.0/      0.0 .       0/       0
  19  LUSC36            0.00 .       0/       0 .      0.0/      0.0 .       0/       0
  20  LUSC37            0.00 .       0/       0 .      0.0/      0.0 .       0/       0
  21  LUSC38            0.00 .       0/       0 .      0.0/      0.0 .       0/       0
  22  LUSC39            0.00 .       0/       0 .      0.0/      0.0 .       0/       0
  23  LUSC40            0.00 .       0/       0 .      0.0/      0.0 .       0/       0
  24  LUMOUT            0.00 .       0/       0 .      0.0/      0.0 .       0/       0
  25  CHODIAG           0.22 .       0/      62 .      0.0/     13.9 .       0/       0
  26  .RUNTMP           0.51 .    2647/   20657 .     59.2/    192.6 .       0/       0
  - - - - - - - - - - - - - - - - - - - - - - - - - - - - - - - - - - - - - - - - - - -
   *  TOTAL           261.75 .   42610/  164017 .   4438.8/  21084.0 .       1/       4
  - - - - - - - - - - - - - - - - - - - - - - - - - - - - - - - - - - - - - - - - - - -
 
  II. I/O Access Patterns
  - - - - - - - - - - - - - - - - - - - -
  Unit  Name               % of random
                         Write/Read calls
  - - - - - - - - - - - - - - - - - - - -
   1  RUNFILE             28.6/  10.8
   2  ONEINT             100.0/   6.5
   3  TRAINT              98.4/ 100.0
   4  TEMP01               0.0/   0.0
   5  TEMP02              99.6/ 100.0
   6  JOBIPH              96.7/ 100.0
   7  CHRED                0.0/  48.4
   8  CHVEC1               0.0/   2.7
   9  CHORST               0.0/   0.0
  10  CHOMAP               0.0/   0.0
  11  CIDIA               10.2/  10.4
  12  LUCVECT             12.4/  13.9
  13  HCFILE              12.5/  16.6
  14  LUSC1                9.0/  11.3
  15  LUSC2                7.9/   9.6
  16  LUSC3                6.6/   6.7
  17  LUSC34              12.5/  16.7
  18  LUSC35               0.0/   0.0
  19  LUSC36               0.0/   0.0
  20  LUSC37               0.0/   0.0
  21  LUSC38               0.0/   0.0
  22  LUSC39               0.0/   0.0
  23  LUSC40               0.0/   0.0
  24  LUMOUT               0.0/   0.0
  25  CHODIAG              0.0/   0.0
  26  .RUNTMP             28.5/   8.0
  - - - - - - - - - - - - - - - - - - - -
--
 ###############################################################################
 ###############################################################################
 ###                                                                         ###
 ###                                                                         ###
 ###    WARNING: RunFile label BirthCertificate                              ###
 ###    was used       85 times                                              ###
 ###                                                                         ###
 ###                                                                         ###
 ###############################################################################
 ###############################################################################
 ###############################################################################
 ###############################################################################
 ###                                                                         ###
 ###                                                                         ###
 ###    WARNING: RunFile label D1ao                                          ###
 ###    was used       72 times                                              ###
 ###                                                                         ###
 ###                                                                         ###
 ###############################################################################
 ###############################################################################
 ###############################################################################
 ###############################################################################
 ###                                                                         ###
 ###                                                                         ###
 ###    WARNING: RunFile label Unique Coordinat                              ###
 ###    was used       91 times                                              ###
 ###                                                                         ###
 ###                                                                         ###
 ###############################################################################
 ###############################################################################
 ###############################################################################
 ###############################################################################
 ###                                                                         ###
 ###                                                                         ###
 ###    WARNING: RunFile label PotNuc00                                      ###
 ###    was used       61 times                                              ###
 ###                                                                         ###
 ###                                                                         ###
 ###############################################################################
 ###############################################################################
 ###############################################################################
 ###############################################################################
 ###                                                                         ###
 ###                                                                         ###
 ###    WARNING: RunFile label h1_raw                                        ###
 ###    was used       61 times                                              ###
 ###                                                                         ###
 ###                                                                         ###
 ###############################################################################
 ###############################################################################
 ###############################################################################
 ###############################################################################
 ###                                                                         ###
 ###                                                                         ###
 ###    WARNING: RunFile label h1    XX                                      ###
 ###    was used      122 times                                              ###
 ###                                                                         ###
 ###                                                                         ###
 ###############################################################################
 ###############################################################################
 ###############################################################################
 ###############################################################################
 ###                                                                         ###
 ###                                                                         ###
 ###    WARNING: RunFile label PotNucXX                                      ###
 ###    was used       61 times                                              ###
 ###                                                                         ###
 ###                                                                         ###
 ###############################################################################
 ###############################################################################
 ###############################################################################
 ###############################################################################
 ###                                                                         ###
 ###                                                                         ###
 ###    WARNING: RunFile label RF CASSCF Vector                              ###
 ###    was used       43 times                                              ###
 ###                                                                         ###
 ###                                                                         ###
 ###############################################################################
 ###############################################################################
 ###############################################################################
 ###############################################################################
 ###                                                                         ###
 ###                                                                         ###
 ###    WARNING: RunFile label PotNuc                                        ###
 ###    was used       62 times                                              ###
 ###                                                                         ###
 ###                                                                         ###
 ###############################################################################
 ###############################################################################
 ###############################################################################
 ###############################################################################
 ###                                                                         ###
 ###                                                                         ###
 ###    WARNING: RunFile label nBas                                          ###
 ###    was used       44 times                                              ###
 ###                                                                         ###
 ###                                                                         ###
 ###############################################################################
 ###############################################################################
 ###############################################################################
 ###############################################################################
 ###                                                                         ###
 ###                                                                         ###
 ###    WARNING: RunFile label System BitSwitch                              ###
 ###    was used      123 times                                              ###
 ###                                                                         ###
 ###                                                                         ###
 ###############################################################################
 ###############################################################################
 ###############################################################################
 ###############################################################################
 ###                                                                         ###
 ###                                                                         ###
 ###    WARNING: RunFile label Unique atoms                                  ###
 ###    was used       63 times                                              ###
 ###                                                                         ###
 ###                                                                         ###
 ###############################################################################
 ###############################################################################
--- Stop Module: rasscf at Thu Jul 23 18:05:16 2020 /rc=_RC_ALL_IS_WELL_ ---
*** files: GMe-Cis-OOScan6-D0-VDZ-SA-CAS1311-Pi-PCM.LprOrb GMe-Cis-OOScan6-D0-VDZ-SA-CAS1311-Pi-PCM.rasscf.molden.3 GMe-Cis-OOScan6-D0-VDZ-SA-CAS1311-Pi-PCM.rasscf.molden
           GMe-Cis-OOScan6-D0-VDZ-SA-CAS1311-Pi-PCM.rasscf.molden.2 GMe-Cis-OOScan6-D0-VDZ-SA-CAS1311-Pi-PCM.rasscf.molden.1
           GMe-Cis-OOScan6-D0-VDZ-SA-CAS1311-Pi-PCM.rasscf.molden.5 GMe-Cis-OOScan6-D0-VDZ-SA-CAS1311-Pi-PCM.rasscf.molden.4 GMe-Cis-OOScan6-D0-VDZ-SA-CAS1311-Pi-PCM.LoProp.molden
           GMe-Cis-OOScan6-D0-VDZ-SA-CAS1311-Pi-PCM.RasOrb GMe-Cis-OOScan6-D0-VDZ-SA-CAS1311-Pi-PCM.RasOrb.2 GMe-Cis-OOScan6-D0-VDZ-SA-CAS1311-Pi-PCM.RasOrb.5
           GMe-Cis-OOScan6-D0-VDZ-SA-CAS1311-Pi-PCM.RasOrb.3 GMe-Cis-OOScan6-D0-VDZ-SA-CAS1311-Pi-PCM.RasOrb.1 GMe-Cis-OOScan6-D0-VDZ-SA-CAS1311-Pi-PCM.RasOrb.4
           GMe-Cis-OOScan6-D0-VDZ-SA-CAS1311-Pi-PCM.rasscf.h5 GMe-Cis-OOScan6-D0-VDZ-SA-CAS1311-Pi-PCM.SpdOrb.4 GMe-Cis-OOScan6-D0-VDZ-SA-CAS1311-Pi-PCM.SpdOrb.5
           GMe-Cis-OOScan6-D0-VDZ-SA-CAS1311-Pi-PCM.SpdOrb.2 GMe-Cis-OOScan6-D0-VDZ-SA-CAS1311-Pi-PCM.SpdOrb.3 GMe-Cis-OOScan6-D0-VDZ-SA-CAS1311-Pi-PCM.SpdOrb.1 xmldump
    saved to directory /home/ubuntu/newcas/build/calc/200723
--- Module rasscf spent 1 hour 11 minutes 46 seconds ---

.##################.
.# Happy landing! #.
.##################.

    Timing: Wall=4357.82 User=6455.21 System=54.38
********************************************************************************************
*** WorkDir at /tmp/molcas_calculations/GMe-Cis-OOScan6-D0-VDZ-SA-CAS1311-Pi-PCM cleaned ***
********************************************************************************************
