 Entering Gaussian System, Link 0=g16
 Initial command:
 /cluster/chemistry/gaussian/g16/l1.exe "/scratch/js1212.578215/scratch/Gau-27774.inp" -scrdir="/scratch/js1212.578215/scratch/"
 Entering Link 1 = /cluster/chemistry/gaussian/g16/l1.exe PID=     27775.
  
 Copyright (c) 1988,1990,1992,1993,1995,1998,2003,2009,2016,
            Gaussian, Inc.  All Rights Reserved.
  
 This is part of the Gaussian(R) 16 program.  It is based on
 the Gaussian(R) 09 system (copyright 2009, Gaussian, Inc.),
 the Gaussian(R) 03 system (copyright 2003, Gaussian, Inc.),
 the Gaussian(R) 98 system (copyright 1998, Gaussian, Inc.),
 the Gaussian(R) 94 system (copyright 1995, Gaussian, Inc.),
 the Gaussian 92(TM) system (copyright 1992, Gaussian, Inc.),
 the Gaussian 90(TM) system (copyright 1990, Gaussian, Inc.),
 the Gaussian 88(TM) system (copyright 1988, Gaussian, Inc.),
 the Gaussian 86(TM) system (copyright 1986, Carnegie Mellon
 University), and the Gaussian 82(TM) system (copyright 1983,
 Carnegie Mellon University). Gaussian is a federally registered
 trademark of Gaussian, Inc.
  
 This software contains proprietary and confidential information,
 including trade secrets, belonging to Gaussian, Inc.
  
 This software is provided under written license and may be
 used, copied, transmitted, or stored only in accord with that
 written license.
  
 The following legend is applicable only to US Government
 contracts under FAR:
  
                    RESTRICTED RIGHTS LEGEND
  
 Use, reproduction and disclosure by the US Government is
 subject to restrictions as set forth in subparagraphs (a)
 and (c) of the Commercial Computer Software - Restricted
 Rights clause in FAR 52.227-19.
  
 Gaussian, Inc.
 340 Quinnipiac St., Bldg. 40, Wallingford CT 06492
  
  
 ---------------------------------------------------------------
 Warning -- This program may not be used in any manner that
 competes with the business of Gaussian, Inc. or will provide
 assistance to any competitor of Gaussian, Inc.  The licensee
 of this program is prohibited from giving any competitor of
 Gaussian, Inc. access to this program.  By using this program,
 the user acknowledges that Gaussian, Inc. is engaged in the
 business of creating and licensing software in the field of
 computational chemistry and represents and warrants to the
 licensee that it is not a competitor of Gaussian, Inc. and that
 it will not use this program in any manner prohibited above.
 ---------------------------------------------------------------
  

 Cite this work as:
 Gaussian 16, Revision A.03,
 M. J. Frisch, G. W. Trucks, H. B. Schlegel, G. E. Scuseria, 
 M. A. Robb, J. R. Cheeseman, G. Scalmani, V. Barone, 
 G. A. Petersson, H. Nakatsuji, X. Li, M. Caricato, A. V. Marenich, 
 J. Bloino, B. G. Janesko, R. Gomperts, B. Mennucci, H. P. Hratchian, 
 J. V. Ortiz, A. F. Izmaylov, J. L. Sonnenberg, D. Williams-Young, 
 F. Ding, F. Lipparini, F. Egidi, J. Goings, B. Peng, A. Petrone, 
 T. Henderson, D. Ranasinghe, V. G. Zakrzewski, J. Gao, N. Rega, 
 G. Zheng, W. Liang, M. Hada, M. Ehara, K. Toyota, R. Fukuda, 
 J. Hasegawa, M. Ishida, T. Nakajima, Y. Honda, O. Kitao, H. Nakai, 
 T. Vreven, K. Throssell, J. A. Montgomery, Jr., J. E. Peralta, 
 F. Ogliaro, M. J. Bearpark, J. J. Heyd, E. N. Brothers, K. N. Kudin, 
 V. N. Staroverov, T. A. Keith, R. Kobayashi, J. Normand, 
 K. Raghavachari, A. P. Rendell, J. C. Burant, S. S. Iyengar, 
 J. Tomasi, M. Cossi, J. M. Millam, M. Klene, C. Adamo, R. Cammi, 
 J. W. Ochterski, R. L. Martin, K. Morokuma, O. Farkas, 
 J. B. Foresman, and D. J. Fox, Gaussian, Inc., Wallingford CT, 2016.
 
 ******************************************
 Gaussian 16:  ES64L-G16RevA.03 25-Dec-2016
                28-Feb-2020 
 ******************************************
 %rwf=/scratch/js1212.578215/F-R2-S2-Down-GP-Disp-SMD.rwf
 %nosave
 %nprocshared=20
 Will use up to   20 processors via shared memory.
 %mem=3000MB
 %chk=/scratch/js1212.578215/F-R2-S2-Down-GPOF-Disp.chk
 ----------------------------------------------------------------------
 # genecp pbe1pbe EmpiricalDispersion=GD3BJ scrf=(SMD,solvent=water) ge
 om=allcheck
 ----------------------------------------------------------------------
 1/29=7,38=1,172=1/1;
 2/12=2,40=1/2;
 3/5=7,11=2,14=-4,16=1,17=8,25=1,30=1,70=32201,72=1,74=-13,124=41/1,2,3;
 4//1;
 5/5=2,38=5,53=1/2;
 6/7=2,8=2,9=2,10=2,28=1/1;
 99/5=1,9=1/99;
 Structure from the checkpoint file:  "/scratch/js1212.578215/F-R2-S2-Down-GPOF-Disp.chk"
 -------------------
 Title Card Required
 -------------------
 Charge =  0 Multiplicity = 1
 Redundant internal coordinates found in file.  (old form).
 C,0,-0.4762262943,-5.2806244372,-2.413065041
 H,0,0.9304436405,-2.6708865698,3.6360993922
 O,0,-0.9443199786,-4.2272329838,0.8292365174
 H,0,-1.3446888944,-3.419189028,4.1361708946
 O,0,1.8881753014,-4.0849016875,0.8757479977
 C,0,1.0023977506,-5.4054814128,-2.1089475795
 H,0,2.1563806494,-2.4218104391,4.9003691047
 H,0,1.5782712565,-5.6351062245,-3.0297009038
 C,0,1.3355221598,-3.0826607877,4.5744167519
 H,0,-1.9351409849,-4.4844026493,2.8532449758
 H,0,0.551119703,-3.0227312558,5.3423067204
 H,0,1.3546425003,-4.4364721742,-1.7290642141
 C,0,-1.8354825955,-4.3837416864,3.9460321524
 H,0,-2.8366053108,-4.352857771,4.408448528
 H,0,2.9760775932,-5.3453671269,-0.5341448457
 Ru,0,0.5144740121,-5.6264794123,1.2964408139
 H,0,2.8919128138,-4.1119745746,2.5109597729
 N,0,1.2892671066,-6.3978861684,-1.0660976313
 C,0,2.7130832425,-6.3976039681,-0.7349897523
 C,0,1.8908453273,-4.5008937362,4.4229233394
 H,0,3.8606270505,-3.7728320827,3.9900971428
 H,0,-0.4256169995,-4.4509153224,6.3381651299
 C,0,3.1338258819,-4.4611238451,3.5259689567
 C,0,-1.0493144806,-5.5583694926,4.5390775788
 P,0,0.5890479399,-5.6072121843,3.5690141681
 H,0,3.3447932805,-6.7857151854,-1.5557911291
 C,0,-0.900491412,-5.3969061411,6.0517920561
 H,0,-0.3110900587,-7.6874795154,-1.4048198671
 H,0,1.0426391106,-7.8211144909,-3.5370488581
 H,0,-1.9097327148,-5.4015536185,6.4964210947
 C,0,0.7847144037,-7.744881688,-1.3655009369
 H,0,3.0782545679,-4.3379166631,6.1972688933
 C,0,-0.7386992436,-6.9536519367,1.2701161343
 C,0,2.3342104273,-5.0412216402,5.7871730622
 H,0,-2.039593063,-7.0405046312,3.2437704448
 C,0,-1.8357411736,-6.849168101,4.3018469728
 H,0,1.527173813,-5.126846219,6.5225054492
 H,0,-2.8107048468,-6.7479953007,4.8065596541
 C,0,3.0035457211,-7.151208392,0.5321295224
 N,0,2.1470320257,-6.9572530428,1.5557194237
 C,0,1.3144026984,-8.3934875887,-2.6375379427
 H,0,3.6208546781,-5.4465697442,3.4602011642
 H,0,1.0201162741,-8.3799288669,-0.497381071
 H,0,-0.3400903729,-6.227401681,6.507897183
 H,0,2.4091484905,-8.5094411891,-2.6272633722
 C,0,1.3044830877,-7.3278505877,3.7957242824
 H,0,0.879887632,-9.3991594057,-2.7415667611
 H,0,2.8372416478,-6.0162495937,5.7026069626
 C,0,2.3445079206,-7.5738746103,2.7431177114
 C,0,4.1176353902,-7.9725745096,0.6801227965
 H,0,-1.3399156627,-7.7309407589,4.7368269255
 H,0,4.792556808,-8.1169878259,-0.164186697
 H,0,0.4605822365,-8.0118529548,3.6084158509
 H,0,1.6892575888,-7.5379576851,4.8025572777
 C,0,3.450995472,-8.3953351459,2.9462479027
 C,0,4.3494761152,-8.5931416593,1.9032458848
 H,0,3.5961086457,-8.874566038,3.9147979071
 H,0,5.2210914272,-9.2356163156,2.0409608414
 H,0,1.4333362464,-3.5343120791,0.2027576917
 O,0,-1.5369018212,-7.7865058478,1.10196325
 C,0,-2.940539574,-1.6878554204,1.6057820384
 H,0,3.3794839078,-3.0766822756,-0.1476788043
 O,0,0.252957402,-1.8585624499,1.7778479113
 H,0,3.7588560939,-1.88203596,1.94635792
 O,0,0.3517097472,-2.4842470859,-0.9574544105
 H,0,0.9651237504,-2.5100238947,1.6380796933
 C,0,-2.7237735426,-1.8199425082,0.1134386489
 H,0,4.5900470842,-3.210427219,-1.4542980873
 C,0,4.1591306827,-2.5282996331,-0.7007062096
 H,0,2.3368191425,-1.0131343891,2.5413281781
 H,0,4.9649592512,-2.2797989184,0.0049491747
 C,0,3.4098434437,-0.9096799122,2.3193254364
 H,0,3.9549410266,-0.6857342256,3.2521555621
 H,0,-1.3594271827,-1.9140368494,-2.0351975494
 Ru,0,0.3239947646,-0.6816339639,0.0729154564
 H,0,1.7899153301,-2.2454683341,-2.1707844939
 N,0,-1.9359485913,-0.706995856,-0.4608423267
 C,0,-1.8056560319,-0.9118509132,-1.9163816226
 C,0,3.6188876542,-1.2919599598,-1.4230622319
 H,0,3.2556676956,-2.4347392544,-3.2034569263
 H,0,5.6239166395,-0.5365653407,0.6834524759
 C,0,2.6889770265,-1.7421068473,-2.5573441384
 C,0,3.651400871,0.2182356354,1.3113225778
 P,0,2.5855478767,-0.2408019602,-0.2004370057
 H,0,-2.778214183,-0.8621242859,-2.4341273089
 C,0,5.1462459663,0.3837974236,1.040449884
 H,0,-2.4931501515,0.7675514614,0.9086581428
 H,0,-4.6834220583,0.1065625108,-0.1653100599
 H,0,5.6378289121,0.6585908214,1.9889421793
 C,0,-2.5516734602,0.6107014599,-0.174906507
 H,0,5.29145792,-1.2077181376,-2.7579387748
 C,0,0.0933843511,0.7981279816,1.1232042619
 C,0,4.7742223453,-0.5190565895,-2.0685511899
 H,0,2.1001108414,1.5087896069,2.1936793815
 C,0,3.1588678183,1.5331693372,1.9182685763
 H,0,5.5205036435,-0.1472914933,-1.3585135965
 H,0,3.7308198407,1.7150048253,2.8433676934
 C,0,-0.8295223226,0.0582569017,-2.5068607988
 N,0,0.2424681535,0.3112217063,-1.7328617676
 C,0,-3.9852977949,0.8079737285,-0.6447413995
 H,0,2.3807388484,-0.8952582647,-3.1897224108
 H,0,-1.9044106843,1.3749134228,-0.6295612086
 H,0,5.352677404,1.1911232365,0.3214154967
 H,0,-4.0953644052,0.7089557907,-1.7351486787
 C,0,2.3412137057,1.3475850207,-1.1742492815
 H,0,-4.3057618216,1.8262106697,-0.3774992147
 H,0,4.4188331344,0.3250288467,-2.678182214
 C,0,1.2211272846,1.1435851397,-2.1465647162
 C,0,-0.9552764309,0.6418173666,-3.7629244414
 H,0,3.3372894284,2.3947839355,1.2562558257
 H,0,-1.8330256472,0.4280214026,-4.3736824607
 H,0,2.0172657818,2.0904512433,-0.4271160692
 H,0,3.2432423104,1.7350749889,-1.6662832567
 C,0,1.1493689326,1.7481833337,-3.3993217585
 C,0,0.0511711441,1.4912295187,-4.2153393501
 H,0,1.9497082635,2.4134190652,-3.7246080995
 H,0,-0.0226285446,1.9575363189,-5.1994409826
 H,0,-0.195651711,-3.1139439524,-0.4357511733
 O,0,-0.1623921338,1.6821713941,1.8383698215
 H,0,-0.6285368441,-4.4166095656,-3.0755497497
 H,0,-1.0332709439,-5.0928628988,-1.4817516639
 H,0,-0.8904492466,-6.1685861997,-2.9158623321
 H,0,-1.9696253851,-1.5725351497,2.1112535148
 H,0,-3.4035021933,-2.6145648169,1.9728146781
 H,0,-3.6053551743,-0.8524001799,1.8756987521
 H,0,-2.1675627208,-2.7491556907,-0.0773479225
 H,0,-3.689882579,-1.8935772525,-0.423269219
 H,0,-0.6813577922,-3.4163087723,1.3202384574
 Recover connectivity data from disk.
                           ----------------------------
                           !    Current Parameters    !
                           ! (Angstroms and Degrees)  !
 --------------------------                            --------------------------
 ! Name  Definition              Value                                          !
 --------------------------------------------------------------------------------
 ! R1    R(1,6)                  1.5147                                         !
 ! R2    R(1,120)                1.0994                                         !
 ! R3    R(1,121)                1.1013                                         !
 ! R4    R(1,122)                1.1013                                         !
 ! R5    R(2,9)                  1.1019                                         !
 ! R6    R(2,66)                 2.0048                                         !
 ! R7    R(3,16)                 2.0747                                         !
 ! R8    R(3,128)                0.9838                                         !
 ! R9    R(4,13)                 1.0988                                         !
 ! R10   R(5,16)                 2.1072                                         !
 ! R11   R(5,59)                 0.9813                                         !
 ! R12   R(6,8)                  1.11                                           !
 ! R13   R(6,12)                 1.0988                                         !
 ! R14   R(6,18)                 1.4679                                         !
 ! R15   R(7,9)                  1.1031                                         !
 ! R16   R(9,11)                 1.0993                                         !
 ! R17   R(9,20)                 1.5306                                         !
 ! R18   R(10,13)                1.1019                                         !
 ! R19   R(13,14)                1.1032                                         !
 ! R20   R(13,24)                1.5328                                         !
 ! R21   R(15,19)                1.103                                          !
 ! R22   R(16,25)                2.2739                                         !
 ! R23   R(16,33)                1.8255                                         !
 ! R24   R(16,40)                2.1221                                         !
 ! R25   R(17,23)                1.1003                                         !
 ! R26   R(18,19)                1.4618                                         !
 ! R27   R(18,31)                1.4692                                         !
 ! R28   R(19,26)                1.1061                                         !
 ! R29   R(19,39)                1.5026                                         !
 ! R30   R(20,23)                1.5333                                         !
 ! R31   R(20,25)                1.9099                                         !
 ! R32   R(20,34)                1.5329                                         !
 ! R33   R(21,23)                1.1034                                         !
 ! R34   R(22,27)                1.0965                                         !
 ! R35   R(23,42)                1.1012                                         !
 ! R36   R(24,25)                1.9046                                         !
 ! R37   R(24,27)                1.5286                                         !
 ! R38   R(24,36)                1.53                                           !
 ! R39   R(25,46)                1.8772                                         !
 ! R40   R(27,30)                1.1029                                         !
 ! R41   R(27,44)                1.1008                                         !
 ! R42   R(28,31)                1.098                                          !
 ! R43   R(29,41)                1.1003                                         !
 ! R44   R(31,41)                1.5229                                         !
 ! R45   R(31,43)                1.1011                                         !
 ! R46   R(32,34)                1.1029                                         !
 ! R47   R(33,60)                1.1658                                         !
 ! R48   R(34,37)                1.0951                                         !
 ! R49   R(34,48)                1.1004                                         !
 ! R50   R(35,36)                1.0944                                         !
 ! R51   R(36,38)                1.1025                                         !
 ! R52   R(36,51)                1.1012                                         !
 ! R53   R(39,40)                1.3487                                         !
 ! R54   R(39,50)                1.392                                          !
 ! R55   R(40,49)                1.3525                                         !
 ! R56   R(41,45)                1.1009                                         !
 ! R57   R(41,47)                1.1005                                         !
 ! R58   R(46,49)                1.5001                                         !
 ! R59   R(46,53)                1.1023                                         !
 ! R60   R(46,54)                1.0981                                         !
 ! R61   R(49,55)                1.393                                          !
 ! R62   R(50,52)                1.0905                                         !
 ! R63   R(50,56)                1.391                                          !
 ! R64   R(55,56)                1.3908                                         !
 ! R65   R(55,57)                1.0903                                         !
 ! R66   R(56,58)                1.0915                                         !
 ! R67   R(59,66)                1.8244                                         !
 ! R68   R(61,67)                1.5138                                         !
 ! R69   R(61,123)               1.1007                                         !
 ! R70   R(61,124)               1.099                                          !
 ! R71   R(61,125)               1.1013                                         !
 ! R72   R(62,69)                1.102                                          !
 ! R73   R(63,66)                0.9753                                         !
 ! R74   R(63,75)                2.0729                                         !
 ! R75   R(64,72)                1.0984                                         !
 ! R76   R(65,75)                2.0765                                         !
 ! R77   R(65,118)               0.984                                          !
 ! R78   R(66,128)               1.9061                                         !
 ! R79   R(67,77)                1.4796                                         !
 ! R80   R(67,126)               1.0996                                         !
 ! R81   R(67,127)               1.1076                                         !
 ! R82   R(68,69)                1.104                                          !
 ! R83   R(69,71)                1.0996                                         !
 ! R84   R(69,79)                1.5304                                         !
 ! R85   R(70,72)                1.1006                                         !
 ! R86   R(72,73)                1.1034                                         !
 ! R87   R(72,83)                1.5319                                         !
 ! R88   R(74,78)                1.1035                                         !
 ! R89   R(75,84)                2.3203                                         !
 ! R90   R(75,92)                1.8292                                         !
 ! R91   R(75,99)                2.0623                                         !
 ! R92   R(76,82)                1.1005                                         !
 ! R93   R(77,78)                1.4756                                         !
 ! R94   R(77,90)                1.4823                                         !
 ! R95   R(78,85)                1.1029                                         !
 ! R96   R(78,98)                1.4975                                         !
 ! R97   R(79,82)                1.5343                                         !
 ! R98   R(79,84)                1.9151                                         !
 ! R99   R(79,93)                1.5326                                         !
 ! R100  R(80,82)                1.1038                                         !
 ! R101  R(81,86)                1.0967                                         !
 ! R102  R(82,101)               1.1009                                         !
 ! R103  R(83,84)                1.9058                                         !
 ! R104  R(83,86)                1.5282                                         !
 ! R105  R(83,95)                1.5297                                         !
 ! R106  R(84,105)               1.8791                                         !
 ! R107  R(86,89)                1.1031                                         !
 ! R108  R(86,103)               1.1006                                         !
 ! R109  R(87,90)                1.0964                                         !
 ! R110  R(88,100)               1.0996                                         !
 ! R111  R(90,100)               1.5215                                         !
 ! R112  R(90,102)               1.0999                                         !
 ! R113  R(91,93)                1.1032                                         !
 ! R114  R(92,119)               1.1655                                         !
 ! R115  R(93,96)                1.0951                                         !
 ! R116  R(93,107)               1.1002                                         !
 ! R117  R(94,95)                1.0943                                         !
 ! R118  R(95,97)                1.1027                                         !
 ! R119  R(95,110)               1.1011                                         !
 ! R120  R(98,99)                1.3462                                         !
 ! R121  R(98,109)               1.3907                                         !
 ! R122  R(99,108)               1.3497                                         !
 ! R123  R(100,104)              1.1004                                         !
 ! R124  R(100,106)              1.1004                                         !
 ! R125  R(105,108)              1.4972                                         !
 ! R126  R(105,112)              1.1023                                         !
 ! R127  R(105,113)              1.0981                                         !
 ! R128  R(108,114)              1.3929                                         !
 ! R129  R(109,111)              1.0905                                         !
 ! R130  R(109,115)              1.3925                                         !
 ! R131  R(114,115)              1.3921                                         !
 ! R132  R(114,116)              1.0904                                         !
 ! R133  R(115,117)              1.0915                                         !
 ! A1    A(6,1,120)            108.7241                                         !
 ! A2    A(6,1,121)            109.7559                                         !
 ! A3    A(6,1,122)            113.1013                                         !
 ! A4    A(120,1,121)          107.7894                                         !
 ! A5    A(120,1,122)          107.8453                                         !
 ! A6    A(121,1,122)          109.4689                                         !
 ! A7    A(16,3,128)           104.8089                                         !
 ! A8    A(16,5,59)            104.1951                                         !
 ! A9    A(1,6,8)              110.9124                                         !
 ! A10   A(1,6,12)             108.0382                                         !
 ! A11   A(1,6,18)             112.9008                                         !
 ! A12   A(8,6,12)             107.6316                                         !
 ! A13   A(8,6,18)             110.3688                                         !
 ! A14   A(12,6,18)            106.7353                                         !
 ! A15   A(2,9,7)              107.5371                                         !
 ! A16   A(2,9,11)             108.1885                                         !
 ! A17   A(2,9,20)             113.2892                                         !
 ! A18   A(7,9,11)             106.9723                                         !
 ! A19   A(7,9,20)             108.323                                          !
 ! A20   A(11,9,20)            112.2424                                         !
 ! A21   A(4,13,10)            106.989                                          !
 ! A22   A(4,13,14)            107.9524                                         !
 ! A23   A(4,13,24)            112.1263                                         !
 ! A24   A(10,13,14)           109.6437                                         !
 ! A25   A(10,13,24)           111.1047                                         !
 ! A26   A(14,13,24)           108.9485                                         !
 ! A27   A(3,16,5)              85.4127                                         !
 ! A28   A(3,16,25)            104.0289                                         !
 ! A29   A(3,16,33)             90.2514                                         !
 ! A30   A(5,16,25)             99.9011                                         !
 ! A31   A(5,16,40)             88.9483                                         !
 ! A32   A(25,16,33)            92.4694                                         !
 ! A33   A(25,16,40)            81.835                                          !
 ! A34   A(33,16,40)            94.2417                                         !
 ! A35   A(6,18,19)            110.557                                          !
 ! A36   A(6,18,31)            114.0757                                         !
 ! A37   A(19,18,31)           112.3848                                         !
 ! A38   A(15,19,18)           105.8819                                         !
 ! A39   A(15,19,26)           109.4921                                         !
 ! A40   A(15,19,39)           106.1881                                         !
 ! A41   A(18,19,26)           112.8382                                         !
 ! A42   A(18,19,39)           112.2834                                         !
 ! A43   A(26,19,39)           109.8401                                         !
 ! A44   A(9,20,23)            109.1461                                         !
 ! A45   A(9,20,25)            109.4925                                         !
 ! A46   A(9,20,34)            110.0883                                         !
 ! A47   A(23,20,25)           107.8195                                         !
 ! A48   A(23,20,34)           107.1753                                         !
 ! A49   A(25,20,34)           113.0088                                         !
 ! A50   A(17,23,20)           111.6926                                         !
 ! A51   A(17,23,21)           109.5675                                         !
 ! A52   A(17,23,42)           109.0329                                         !
 ! A53   A(20,23,21)           107.7037                                         !
 ! A54   A(20,23,42)           111.7311                                         !
 ! A55   A(21,23,42)           106.9798                                         !
 ! A56   A(13,24,25)           105.2948                                         !
 ! A57   A(13,24,27)           110.6021                                         !
 ! A58   A(13,24,36)           108.8381                                         !
 ! A59   A(25,24,27)           115.0237                                         !
 ! A60   A(25,24,36)           109.9706                                         !
 ! A61   A(27,24,36)           107.0139                                         !
 ! A62   A(16,25,20)           118.3006                                         !
 ! A63   A(16,25,24)           118.7528                                         !
 ! A64   A(16,25,46)            97.2058                                         !
 ! A65   A(20,25,24)           110.1051                                         !
 ! A66   A(20,25,46)           102.5432                                         !
 ! A67   A(24,25,46)           106.848                                          !
 ! A68   A(22,27,24)           113.0629                                         !
 ! A69   A(22,27,30)           107.1366                                         !
 ! A70   A(22,27,44)           108.7949                                         !
 ! A71   A(24,27,30)           108.0254                                         !
 ! A72   A(24,27,44)           112.328                                          !
 ! A73   A(30,27,44)           107.1961                                         !
 ! A74   A(18,31,28)           107.5834                                         !
 ! A75   A(18,31,41)           116.1824                                         !
 ! A76   A(18,31,43)           107.1388                                         !
 ! A77   A(28,31,41)           109.8442                                         !
 ! A78   A(28,31,43)           105.7685                                         !
 ! A79   A(41,31,43)           109.7886                                         !
 ! A80   A(20,34,32)           107.5341                                         !
 ! A81   A(20,34,37)           114.3303                                         !
 ! A82   A(20,34,48)           112.0959                                         !
 ! A83   A(32,34,37)           107.2974                                         !
 ! A84   A(32,34,48)           106.5715                                         !
 ! A85   A(37,34,48)           108.6143                                         !
 ! A86   A(24,36,35)           113.1507                                         !
 ! A87   A(24,36,38)           107.8268                                         !
 ! A88   A(24,36,51)           112.5121                                         !
 ! A89   A(35,36,38)           107.0927                                         !
 ! A90   A(35,36,51)           109.0129                                         !
 ! A91   A(38,36,51)           106.9077                                         !
 ! A92   A(19,39,40)           116.4307                                         !
 ! A93   A(19,39,50)           122.7031                                         !
 ! A94   A(40,39,50)           120.8263                                         !
 ! A95   A(16,40,39)           119.079                                          !
 ! A96   A(16,40,49)           120.3649                                         !
 ! A97   A(39,40,49)           120.5328                                         !
 ! A98   A(29,41,31)           112.0484                                         !
 ! A99   A(29,41,45)           107.9408                                         !
 ! A100  A(29,41,47)           107.4934                                         !
 ! A101  A(31,41,45)           112.5146                                         !
 ! A102  A(31,41,47)           109.3195                                         !
 ! A103  A(45,41,47)           107.2935                                         !
 ! A104  A(25,46,49)           109.2582                                         !
 ! A105  A(25,46,53)           104.8606                                         !
 ! A106  A(25,46,54)           114.8121                                         !
 ! A107  A(49,46,53)           108.046                                          !
 ! A108  A(49,46,54)           111.6574                                         !
 ! A109  A(53,46,54)           107.7772                                         !
 ! A110  A(40,49,46)           116.1079                                         !
 ! A111  A(40,49,55)           120.8559                                         !
 ! A112  A(46,49,55)           123.0332                                         !
 ! A113  A(39,50,52)           119.4164                                         !
 ! A114  A(39,50,56)           119.3482                                         !
 ! A115  A(52,50,56)           121.2353                                         !
 ! A116  A(49,55,56)           119.1881                                         !
 ! A117  A(49,55,57)           119.6339                                         !
 ! A118  A(56,55,57)           121.1775                                         !
 ! A119  A(50,56,55)           119.2294                                         !
 ! A120  A(50,56,58)           120.439                                          !
 ! A121  A(55,56,58)           120.3291                                         !
 ! A122  A(5,59,66)             83.939                                          !
 ! A123  A(67,61,123)          109.6069                                         !
 ! A124  A(67,61,124)          108.42                                           !
 ! A125  A(67,61,125)          113.2199                                         !
 ! A126  A(123,61,124)         107.8525                                         !
 ! A127  A(123,61,125)         109.9055                                         !
 ! A128  A(124,61,125)         107.6698                                         !
 ! A129  A(66,63,75)           103.672                                          !
 ! A130  A(75,65,118)          106.5599                                         !
 ! A131  A(2,66,59)            138.027                                          !
 ! A132  A(2,66,63)             84.1535                                         !
 ! A133  A(2,66,128)            96.4936                                         !
 ! A134  A(59,66,63)           132.4685                                         !
 ! A135  A(59,66,128)           79.8373                                         !
 ! A136  A(63,66,128)           73.1858                                         !
 ! A137  A(61,67,77)           113.1573                                         !
 ! A138  A(61,67,126)          108.494                                          !
 ! A139  A(61,67,127)          111.014                                          !
 ! A140  A(77,67,126)          107.3951                                         !
 ! A141  A(77,67,127)          109.0485                                         !
 ! A142  A(126,67,127)         107.514                                          !
 ! A143  A(62,69,68)           108.1331                                         !
 ! A144  A(62,69,71)           107.9921                                         !
 ! A145  A(62,69,79)           112.9                                            !
 ! A146  A(68,69,71)           106.9562                                         !
 ! A147  A(68,69,79)           108.3445                                         !
 ! A148  A(71,69,79)           112.274                                          !
 ! A149  A(64,72,70)           107.1618                                         !
 ! A150  A(64,72,73)           108.0459                                         !
 ! A151  A(64,72,83)           112.2274                                         !
 ! A152  A(70,72,73)           109.28                                           !
 ! A153  A(70,72,83)           110.8346                                         !
 ! A154  A(73,72,83)           109.2061                                         !
 ! A155  A(63,75,65)            85.1642                                         !
 ! A156  A(63,75,84)           103.7785                                         !
 ! A157  A(63,75,92)            89.0105                                         !
 ! A158  A(65,75,84)            95.363                                          !
 ! A159  A(65,75,99)            89.0818                                         !
 ! A160  A(84,75,92)            92.1106                                         !
 ! A161  A(84,75,99)            81.02                                           !
 ! A162  A(92,75,99)            96.218                                          !
 ! A163  A(67,77,78)           108.9923                                         !
 ! A164  A(67,77,90)           111.8779                                         !
 ! A165  A(78,77,90)           110.5091                                         !
 ! A166  A(74,78,77)           105.5452                                         !
 ! A167  A(74,78,85)           110.304                                          !
 ! A168  A(74,78,98)           106.3975                                         !
 ! A169  A(77,78,85)           112.2669                                         !
 ! A170  A(77,78,98)           110.8885                                         !
 ! A171  A(85,78,98)           111.1299                                         !
 ! A172  A(69,79,82)           109.0191                                         !
 ! A173  A(69,79,84)           109.4238                                         !
 ! A174  A(69,79,93)           109.8823                                         !
 ! A175  A(82,79,84)           107.8176                                         !
 ! A176  A(82,79,93)           107.067                                          !
 ! A177  A(84,79,93)           113.5055                                         !
 ! A178  A(76,82,79)           111.6949                                         !
 ! A179  A(76,82,80)           109.7566                                         !
 ! A180  A(76,82,101)          108.9571                                         !
 ! A181  A(79,82,80)           107.7998                                         !
 ! A182  A(79,82,101)          111.6333                                         !
 ! A183  A(80,82,101)          106.8695                                         !
 ! A184  A(72,83,84)           104.8583                                         !
 ! A185  A(72,83,86)           110.5273                                         !
 ! A186  A(72,83,95)           108.7273                                         !
 ! A187  A(84,83,86)           115.6297                                         !
 ! A188  A(84,83,95)           109.9807                                         !
 ! A189  A(86,83,95)           106.9869                                         !
 ! A190  A(75,84,79)           119.792                                          !
 ! A191  A(75,84,83)           119.8292                                         !
 ! A192  A(75,84,105)           95.4464                                         !
 ! A193  A(79,84,83)           109.6852                                         !
 ! A194  A(79,84,105)          101.7287                                         !
 ! A195  A(83,84,105)          106.2723                                         !
 ! A196  A(81,86,83)           113.1314                                         !
 ! A197  A(81,86,89)           107.1494                                         !
 ! A198  A(81,86,103)          108.7372                                         !
 ! A199  A(83,86,89)           108.0893                                         !
 ! A200  A(83,86,103)          112.255                                          !
 ! A201  A(89,86,103)          107.1829                                         !
 ! A202  A(77,90,87)           107.1958                                         !
 ! A203  A(77,90,100)          116.5571                                         !
 ! A204  A(77,90,102)          107.0664                                         !
 ! A205  A(87,90,100)          109.6896                                         !
 ! A206  A(87,90,102)          106.1241                                         !
 ! A207  A(100,90,102)         109.6803                                         !
 ! A208  A(79,93,91)           107.567                                          !
 ! A209  A(79,93,96)           114.3204                                         !
 ! A210  A(79,93,107)          112.1346                                         !
 ! A211  A(91,93,96)           107.3118                                         !
 ! A212  A(91,93,107)          106.5058                                         !
 ! A213  A(96,93,107)          108.599                                          !
 ! A214  A(83,95,94)           113.094                                          !
 ! A215  A(83,95,97)           107.9149                                         !
 ! A216  A(83,95,110)          112.4517                                         !
 ! A217  A(94,95,97)           107.1198                                         !
 ! A218  A(94,95,110)          108.9976                                         !
 ! A219  A(97,95,110)          106.9358                                         !
 ! A220  A(78,98,99)           114.4616                                         !
 ! A221  A(78,98,109)          124.6815                                         !
 ! A222  A(99,98,109)          120.827                                          !
 ! A223  A(75,99,98)           116.3877                                         !
 ! A224  A(75,99,108)          122.4528                                         !
 ! A225  A(98,99,108)          121.1344                                         !
 ! A226  A(88,100,90)          112.3873                                         !
 ! A227  A(88,100,104)         108.1272                                         !
 ! A228  A(88,100,106)         107.4246                                         !
 ! A229  A(90,100,104)         112.8656                                         !
 ! A230  A(90,100,106)         108.6256                                         !
 ! A231  A(104,100,106)        107.1444                                         !
 ! A232  A(84,105,108)         108.5816                                         !
 ! A233  A(84,105,112)         104.87                                           !
 ! A234  A(84,105,113)         115.0663                                         !
 ! A235  A(108,105,112)        108.1887                                         !
 ! A236  A(108,105,113)        111.8154                                         !
 ! A237  A(112,105,113)        107.8967                                         !
 ! A238  A(99,108,105)         115.304                                          !
 ! A239  A(99,108,114)         120.3982                                         !
 ! A240  A(105,108,114)        124.2978                                         !
 ! A241  A(98,109,111)         119.76                                           !
 ! A242  A(98,109,115)         118.9495                                         !
 ! A243  A(111,109,115)        121.2905                                         !
 ! A244  A(108,114,115)        119.1917                                         !
 ! A245  A(108,114,116)        119.6915                                         !
 ! A246  A(115,114,116)        121.1168                                         !
 ! A247  A(109,115,114)        119.4925                                         !
 ! A248  A(109,115,117)        120.3084                                         !
 ! A249  A(114,115,117)        120.1979                                         !
 ! A250  A(3,128,66)           134.9128                                         !
 ! A251  L(9,2,66,4,-1)        197.2091                                         !
 ! A252  L(3,16,40,5,-1)       174.361                                          !
 ! A253  L(5,16,33,3,-1)       175.6642                                         !
 ! A254  L(16,33,60,1,-1)      172.6595                                         !
 ! A255  L(63,75,99,65,-1)     174.246                                          !
 ! A256  L(65,75,92,63,-1)     174.1747                                         !
 ! A257  L(75,92,119,4,-1)     174.8914                                         !
 ! A258  L(9,2,66,4,-2)        203.8811                                         !
 ! A259  L(3,16,40,5,-2)       184.9893                                         !
 ! A260  L(5,16,33,3,-2)       168.315                                          !
 ! A261  L(16,33,60,1,-2)      178.5104                                         !
 ! A262  L(63,75,99,65,-2)     175.6859                                         !
 ! A263  L(65,75,92,63,-2)     186.2796                                         !
 ! A264  L(75,92,119,4,-2)     184.1226                                         !
 ! D1    D(120,1,6,8)          -64.5635                                         !
 ! D2    D(120,1,6,12)          53.1761                                         !
 ! D3    D(120,1,6,18)         170.9714                                         !
 ! D4    D(121,1,6,8)          177.7584                                         !
 ! D5    D(121,1,6,12)         -64.502                                          !
 ! D6    D(121,1,6,18)          53.2933                                         !
 ! D7    D(122,1,6,8)           55.1963                                         !
 ! D8    D(122,1,6,12)         172.9358                                         !
 ! D9    D(122,1,6,18)         -69.2688                                         !
 ! D10   D(128,3,40,39)       -104.4862                                         !
 ! D11   D(128,3,40,49)         72.4154                                         !
 ! D12   D(7,9,66,59)          106.3436                                         !
 ! D13   D(7,9,66,63)          -94.7992                                         !
 ! D14   D(7,9,66,128)        -168.4877                                         !
 ! D15   D(11,9,66,59)        -128.9272                                         !
 ! D16   D(11,9,66,63)          29.93                                           !
 ! D17   D(11,9,66,128)        -43.7585                                         !
 ! D18   D(20,9,66,59)          -4.9457                                         !
 ! D19   D(20,9,66,63)         153.9115                                         !
 ! D20   D(20,9,66,128)         80.223                                          !
 ! D21   D(128,3,16,5)         -47.0039                                         !
 ! D22   D(128,3,16,25)         52.0728                                         !
 ! D23   D(128,3,16,33)        144.6811                                         !
 ! D24   D(16,3,128,66)         42.5095                                         !
 ! D25   D(59,5,16,3)          -29.7297                                         !
 ! D26   D(59,5,16,25)        -133.1954                                         !
 ! D27   D(59,5,16,40)         145.281                                          !
 ! D28   D(16,5,59,66)          96.6865                                         !
 ! D29   D(1,6,18,19)         -175.2922                                         !
 ! D30   D(1,6,18,31)           56.8982                                         !
 ! D31   D(8,6,18,19)           59.9459                                         !
 ! D32   D(8,6,18,31)          -67.8637                                         !
 ! D33   D(12,6,18,19)         -56.7352                                         !
 ! D34   D(12,6,18,31)         175.4552                                         !
 ! D35   D(2,9,20,23)           66.9674                                         !
 ! D36   D(2,9,20,25)          -50.8416                                         !
 ! D37   D(2,9,20,34)         -175.6581                                         !
 ! D38   D(7,9,20,23)          -52.2498                                         !
 ! D39   D(7,9,20,25)         -170.0588                                         !
 ! D40   D(7,9,20,34)           65.1247                                         !
 ! D41   D(11,9,20,23)        -170.1318                                         !
 ! D42   D(11,9,20,25)          72.0592                                         !
 ! D43   D(11,9,20,34)         -52.7573                                         !
 ! D44   D(4,13,24,25)         -65.3323                                         !
 ! D45   D(4,13,24,27)          59.5079                                         !
 ! D46   D(4,13,24,36)         176.8008                                         !
 ! D47   D(10,13,24,25)         54.339                                          !
 ! D48   D(10,13,24,27)        179.1792                                         !
 ! D49   D(10,13,24,36)        -63.5279                                         !
 ! D50   D(14,13,24,25)        175.236                                          !
 ! D51   D(14,13,24,27)        -59.9239                                         !
 ! D52   D(14,13,24,36)         57.369                                          !
 ! D53   D(3,16,25,20)         -94.9932                                         !
 ! D54   D(3,16,25,24)          42.8026                                         !
 ! D55   D(3,16,25,46)         156.5433                                         !
 ! D56   D(5,16,25,20)          -7.2897                                         !
 ! D57   D(5,16,25,24)         130.5062                                         !
 ! D58   D(5,16,25,46)        -115.7531                                         !
 ! D59   D(33,16,25,20)        174.1299                                         !
 ! D60   D(33,16,25,24)        -48.0742                                         !
 ! D61   D(33,16,25,46)         65.6665                                         !
 ! D62   D(40,16,25,20)         80.1961                                         !
 ! D63   D(40,16,25,24)       -142.008                                          !
 ! D64   D(40,16,25,46)        -28.2673                                         !
 ! D65   D(5,16,40,39)         -58.8969                                         !
 ! D66   D(5,16,40,49)         119.3555                                         !
 ! D67   D(25,16,40,39)       -159.0554                                         !
 ! D68   D(25,16,40,49)         19.197                                          !
 ! D69   D(33,16,40,39)        109.0532                                         !
 ! D70   D(33,16,40,49)        -72.6944                                         !
 ! D71   D(6,18,19,15)          51.1376                                         !
 ! D72   D(6,18,19,26)         -68.6148                                         !
 ! D73   D(6,18,19,39)         166.5951                                         !
 ! D74   D(31,18,19,15)        179.8672                                         !
 ! D75   D(31,18,19,26)         60.1148                                         !
 ! D76   D(31,18,19,39)        -64.6752                                         !
 ! D77   D(6,18,31,28)         -64.1814                                         !
 ! D78   D(6,18,31,41)          59.3662                                         !
 ! D79   D(6,18,31,43)        -177.5124                                         !
 ! D80   D(19,18,31,28)        168.9514                                         !
 ! D81   D(19,18,31,41)        -67.501                                          !
 ! D82   D(19,18,31,43)         55.6204                                         !
 ! D83   D(15,19,39,40)         73.2351                                         !
 ! D84   D(15,19,39,50)       -104.4802                                         !
 ! D85   D(18,19,39,40)        -42.0369                                         !
 ! D86   D(18,19,39,50)        140.2479                                         !
 ! D87   D(26,19,39,40)       -168.4627                                         !
 ! D88   D(26,19,39,50)         13.8221                                         !
 ! D89   D(9,20,23,17)         -62.6173                                         !
 ! D90   D(9,20,23,21)          57.7369                                         !
 ! D91   D(9,20,23,42)         174.9458                                         !
 ! D92   D(25,20,23,17)         56.2394                                         !
 ! D93   D(25,20,23,21)        176.5936                                         !
 ! D94   D(25,20,23,42)        -66.1975                                         !
 ! D95   D(34,20,23,17)        178.1829                                         !
 ! D96   D(34,20,23,21)        -61.4629                                         !
 ! D97   D(34,20,23,42)         55.746                                          !
 ! D98   D(9,20,25,16)          85.6243                                         !
 ! D99   D(9,20,25,24)         -55.5345                                         !
 ! D100  D(9,20,25,46)        -168.9645                                         !
 ! D101  D(23,20,25,16)        -33.011                                          !
 ! D102  D(23,20,25,24)       -174.1698                                         !
 ! D103  D(23,20,25,46)         72.4002                                         !
 ! D104  D(34,20,25,16)       -151.2719                                         !
 ! D105  D(34,20,25,24)         67.5693                                         !
 ! D106  D(34,20,25,46)        -45.8606                                         !
 ! D107  D(9,20,34,32)         -57.1033                                         !
 ! D108  D(9,20,34,37)          61.914                                          !
 ! D109  D(9,20,34,48)        -173.9167                                         !
 ! D110  D(23,20,34,32)         61.4881                                         !
 ! D111  D(23,20,34,37)       -179.4947                                         !
 ! D112  D(23,20,34,48)        -55.3254                                         !
 ! D113  D(25,20,34,32)       -179.8762                                         !
 ! D114  D(25,20,34,37)        -60.8589                                         !
 ! D115  D(25,20,34,48)         63.3103                                         !
 ! D116  D(13,24,25,16)        -51.7192                                         !
 ! D117  D(13,24,25,20)         89.241                                          !
 ! D118  D(13,24,25,46)       -160.1193                                         !
 ! D119  D(27,24,25,16)       -173.7413                                         !
 ! D120  D(27,24,25,20)        -32.7811                                         !
 ! D121  D(27,24,25,46)         77.8587                                         !
 ! D122  D(36,24,25,16)         65.3808                                         !
 ! D123  D(36,24,25,20)       -153.659                                          !
 ! D124  D(36,24,25,46)        -43.0192                                         !
 ! D125  D(13,24,27,22)        -56.4644                                         !
 ! D126  D(13,24,27,30)         61.9161                                         !
 ! D127  D(13,24,27,44)        179.934                                          !
 ! D128  D(25,24,27,22)         62.6453                                         !
 ! D129  D(25,24,27,30)       -178.9742                                         !
 ! D130  D(25,24,27,44)        -60.9563                                         !
 ! D131  D(36,24,27,22)       -174.8742                                         !
 ! D132  D(36,24,27,30)        -56.4936                                         !
 ! D133  D(36,24,27,44)         61.5243                                         !
 ! D134  D(13,24,36,35)         57.8898                                         !
 ! D135  D(13,24,36,38)        -60.3578                                         !
 ! D136  D(13,24,36,51)       -178.0022                                         !
 ! D137  D(25,24,36,35)        -56.9779                                         !
 ! D138  D(25,24,36,38)       -175.2256                                         !
 ! D139  D(25,24,36,51)         67.1301                                         !
 ! D140  D(27,24,36,35)        177.4412                                         !
 ! D141  D(27,24,36,38)         59.1936                                         !
 ! D142  D(27,24,36,51)        -58.4508                                         !
 ! D143  D(16,25,46,49)         39.6306                                         !
 ! D144  D(16,25,46,53)        -75.9769                                         !
 ! D145  D(16,25,46,54)        165.9447                                         !
 ! D146  D(20,25,46,49)        -81.5466                                         !
 ! D147  D(20,25,46,53)        162.846                                          !
 ! D148  D(20,25,46,54)         44.7676                                         !
 ! D149  D(24,25,46,49)        162.6479                                         !
 ! D150  D(24,25,46,53)         47.0405                                         !
 ! D151  D(24,25,46,54)        -71.0379                                         !
 ! D152  D(18,31,41,29)        -61.9489                                         !
 ! D153  D(18,31,41,45)         59.8973                                         !
 ! D154  D(18,31,41,47)        178.9959                                         !
 ! D155  D(28,31,41,29)         60.4173                                         !
 ! D156  D(28,31,41,45)       -177.7365                                         !
 ! D157  D(28,31,41,47)        -58.6379                                         !
 ! D158  D(43,31,41,29)        176.3227                                         !
 ! D159  D(43,31,41,45)        -61.8311                                         !
 ! D160  D(43,31,41,47)         57.2675                                         !
 ! D161  D(19,39,40,16)         -0.4537                                         !
 ! D162  D(19,39,40,49)       -178.7031                                         !
 ! D163  D(50,39,40,16)        177.3074                                         !
 ! D164  D(50,39,40,49)         -0.9419                                         !
 ! D165  D(19,39,50,52)         -2.6715                                         !
 ! D166  D(19,39,50,56)        177.2827                                         !
 ! D167  D(40,39,50,52)        179.7111                                         !
 ! D168  D(40,39,50,56)         -0.3347                                         !
 ! D169  D(16,40,49,46)          3.9503                                         !
 ! D170  D(16,40,49,55)       -176.6646                                         !
 ! D171  D(39,40,49,46)       -177.8229                                         !
 ! D172  D(39,40,49,55)          1.5622                                         !
 ! D173  D(25,46,49,40)        -31.2493                                         !
 ! D174  D(25,46,49,55)        149.3804                                         !
 ! D175  D(53,46,49,40)         82.301                                          !
 ! D176  D(53,46,49,55)        -97.0693                                         !
 ! D177  D(54,46,49,40)       -159.3477                                         !
 ! D178  D(54,46,49,55)         21.282                                          !
 ! D179  D(40,49,55,56)         -0.8912                                         !
 ! D180  D(40,49,55,57)        179.3769                                         !
 ! D181  D(46,49,55,56)        178.4502                                         !
 ! D182  D(46,49,55,57)         -1.2817                                         !
 ! D183  D(39,50,56,55)          0.9758                                         !
 ! D184  D(39,50,56,58)       -179.5976                                         !
 ! D185  D(52,50,56,55)       -179.0708                                         !
 ! D186  D(52,50,56,58)          0.3557                                         !
 ! D187  D(49,55,56,50)         -0.3784                                         !
 ! D188  D(49,55,56,58)       -179.8056                                         !
 ! D189  D(57,55,56,50)        179.3493                                         !
 ! D190  D(57,55,56,58)         -0.078                                          !
 ! D191  D(5,59,66,2)          -15.1244                                         !
 ! D192  D(5,59,66,63)        -159.3226                                         !
 ! D193  D(5,59,66,128)       -103.5499                                         !
 ! D194  D(123,61,67,77)       -54.5596                                         !
 ! D195  D(123,61,67,126)       64.5136                                         !
 ! D196  D(123,61,67,127)     -177.5545                                         !
 ! D197  D(124,61,67,77)      -172.0531                                         !
 ! D198  D(124,61,67,126)      -52.9799                                         !
 ! D199  D(124,61,67,127)       64.952                                          !
 ! D200  D(125,61,67,77)        68.5406                                         !
 ! D201  D(125,61,67,126)     -172.3862                                         !
 ! D202  D(125,61,67,127)      -54.4543                                         !
 ! D203  D(75,63,66,2)         157.0243                                         !
 ! D204  D(75,63,66,59)        -46.1339                                         !
 ! D205  D(75,63,66,128)      -104.3659                                         !
 ! D206  D(66,63,75,65)         48.5578                                         !
 ! D207  D(66,63,75,84)        -45.7911                                         !
 ! D208  D(66,63,75,92)       -137.7218                                         !
 ! D209  D(66,63,99,98)        108.4281                                         !
 ! D210  D(66,63,99,108)       -67.9882                                         !
 ! D211  D(118,65,75,63)        33.7207                                         !
 ! D212  D(118,65,75,84)       137.143                                          !
 ! D213  D(118,65,75,99)      -141.9652                                         !
 ! D214  D(2,66,128,3)        -119.5292                                         !
 ! D215  D(59,66,128,3)         18.1838                                         !
 ! D216  D(63,66,128,3)        158.6052                                         !
 ! D217  D(61,67,77,78)       -178.784                                          !
 ! D218  D(61,67,77,90)        -56.2711                                         !
 ! D219  D(126,67,77,78)        61.5109                                         !
 ! D220  D(126,67,77,90)      -175.9762                                         !
 ! D221  D(127,67,77,78)       -54.7078                                         !
 ! D222  D(127,67,77,90)        67.805                                          !
 ! D223  D(62,69,79,82)        -67.6904                                         !
 ! D224  D(62,69,79,84)         50.0028                                         !
 ! D225  D(62,69,79,93)        175.2592                                         !
 ! D226  D(68,69,79,82)         52.0458                                         !
 ! D227  D(68,69,79,84)        169.7391                                         !
 ! D228  D(68,69,79,93)        -65.0045                                         !
 ! D229  D(71,69,79,82)        169.9403                                         !
 ! D230  D(71,69,79,84)        -72.3665                                         !
 ! D231  D(71,69,79,93)         52.89                                           !
 ! D232  D(64,72,83,84)         63.3104                                         !
 ! D233  D(64,72,83,86)        -61.9431                                         !
 ! D234  D(64,72,83,95)       -179.0941                                         !
 ! D235  D(70,72,83,84)        -56.4632                                         !
 ! D236  D(70,72,83,86)        178.2834                                         !
 ! D237  D(70,72,83,95)         61.1324                                         !
 ! D238  D(73,72,83,84)       -176.906                                          !
 ! D239  D(73,72,83,86)         57.8406                                         !
 ! D240  D(73,72,83,95)        -59.3104                                         !
 ! D241  D(63,75,84,79)         97.7462                                         !
 ! D242  D(63,75,84,83)        -43.1229                                         !
 ! D243  D(63,75,84,105)      -155.4026                                         !
 ! D244  D(65,75,84,79)         11.4249                                         !
 ! D245  D(65,75,84,83)       -129.4443                                         !
 ! D246  D(65,75,84,105)       118.276                                          !
 ! D247  D(92,75,84,79)       -172.7554                                         !
 ! D248  D(92,75,84,83)         46.3755                                         !
 ! D249  D(92,75,84,105)       -65.9043                                         !
 ! D250  D(99,75,84,79)        -76.7913                                         !
 ! D251  D(99,75,84,83)        142.3396                                         !
 ! D252  D(99,75,84,105)        30.0598                                         !
 ! D253  D(65,75,99,98)         61.2606                                         !
 ! D254  D(65,75,99,108)      -116.9343                                         !
 ! D255  D(84,75,99,98)        156.8368                                         !
 ! D256  D(84,75,99,108)       -21.3581                                         !
 ! D257  D(92,75,99,98)       -112.0006                                         !
 ! D258  D(92,75,99,108)        69.8044                                         !
 ! D259  D(67,77,78,74)        -55.7063                                         !
 ! D260  D(67,77,78,85)         64.4989                                         !
 ! D261  D(67,77,78,98)       -170.5278                                         !
 ! D262  D(90,77,78,74)       -179.0388                                         !
 ! D263  D(90,77,78,85)        -58.8336                                         !
 ! D264  D(90,77,78,98)         66.1397                                         !
 ! D265  D(67,77,90,87)         66.2014                                         !
 ! D266  D(67,77,90,100)       -57.0952                                         !
 ! D267  D(67,77,90,102)       179.724                                          !
 ! D268  D(78,77,90,87)       -172.1547                                         !
 ! D269  D(78,77,90,100)        64.5488                                         !
 ! D270  D(78,77,90,102)       -58.6321                                         !
 ! D271  D(74,78,98,99)        -76.3315                                         !
 ! D272  D(74,78,98,109)       101.6861                                         !
 ! D273  D(77,78,98,99)         37.956                                          !
 ! D274  D(77,78,98,109)      -144.0263                                         !
 ! D275  D(85,78,98,99)        163.5685                                         !
 ! D276  D(85,78,98,109)       -18.4139                                         !
 ! D277  D(69,79,82,76)         65.2784                                         !
 ! D278  D(69,79,82,80)        -55.3733                                         !
 ! D279  D(69,79,82,101)      -172.4519                                         !
 ! D280  D(84,79,82,76)        -53.4243                                         !
 ! D281  D(84,79,82,80)       -174.076                                          !
 ! D282  D(84,79,82,101)        68.8454                                         !
 ! D283  D(93,79,82,76)       -175.8974                                         !
 ! D284  D(93,79,82,80)         63.4509                                         !
 ! D285  D(93,79,82,101)       -53.6277                                         !
 ! D286  D(69,79,84,75)        -87.8818                                         !
 ! D287  D(69,79,84,83)         56.5646                                         !
 ! D288  D(69,79,84,105)       168.7878                                         !
 ! D289  D(82,79,84,75)         30.5618                                         !
 ! D290  D(82,79,84,83)        175.0083                                         !
 ! D291  D(82,79,84,105)       -72.7685                                         !
 ! D292  D(93,79,84,75)        148.9836                                         !
 ! D293  D(93,79,84,83)        -66.57                                           !
 ! D294  D(93,79,84,105)        45.6532                                         !
 ! D295  D(69,79,93,91)         57.8192                                         !
 ! D296  D(69,79,93,96)        -61.2329                                         !
 ! D297  D(69,79,93,107)       174.5947                                         !
 ! D298  D(82,79,93,91)        -60.4446                                         !
 ! D299  D(82,79,93,96)       -179.4967                                         !
 ! D300  D(82,79,93,107)        56.3309                                         !
 ! D301  D(84,79,93,91)       -179.2982                                         !
 ! D302  D(84,79,93,96)         61.6497                                         !
 ! D303  D(84,79,93,107)       -62.5227                                         !
 ! D304  D(72,83,84,75)         53.5084                                         !
 ! D305  D(72,83,84,79)        -90.9228                                         !
 ! D306  D(72,83,84,105)       159.8489                                         !
 ! D307  D(86,83,84,75)        175.4905                                         !
 ! D308  D(86,83,84,79)         31.0593                                         !
 ! D309  D(86,83,84,105)       -78.169                                          !
 ! D310  D(95,83,84,75)        -63.2293                                         !
 ! D311  D(95,83,84,79)        152.3395                                         !
 ! D312  D(95,83,84,105)        43.1112                                         !
 ! D313  D(72,83,86,81)         56.7028                                         !
 ! D314  D(72,83,86,89)        -61.7772                                         !
 ! D315  D(72,83,86,103)      -179.7768                                         !
 ! D316  D(84,83,86,81)        -62.2004                                         !
 ! D317  D(84,83,86,89)        179.3197                                         !
 ! D318  D(84,83,86,103)        61.3201                                         !
 ! D319  D(95,83,86,81)        174.9225                                         !
 ! D320  D(95,83,86,89)         56.4425                                         !
 ! D321  D(95,83,86,103)       -61.5571                                         !
 ! D322  D(72,83,95,94)        -58.0868                                         !
 ! D323  D(72,83,95,97)         60.2187                                         !
 ! D324  D(72,83,95,110)       177.9184                                         !
 ! D325  D(84,83,95,94)         56.2039                                         !
 ! D326  D(84,83,95,97)        174.5094                                         !
 ! D327  D(84,83,95,110)       -67.7908                                         !
 ! D328  D(86,83,95,94)       -177.474                                          !
 ! D329  D(86,83,95,97)        -59.1685                                         !
 ! D330  D(86,83,95,110)        58.5312                                         !
 ! D331  D(75,84,105,108)      -41.3069                                         !
 ! D332  D(75,84,105,112)       74.1599                                         !
 ! D333  D(75,84,105,113)     -167.4679                                         !
 ! D334  D(79,84,105,108)       80.6678                                         !
 ! D335  D(79,84,105,112)     -163.8654                                         !
 ! D336  D(79,84,105,113)      -45.4932                                         !
 ! D337  D(83,84,105,108)     -164.5612                                         !
 ! D338  D(83,84,105,112)      -49.0944                                         !
 ! D339  D(83,84,105,113)       69.2778                                         !
 ! D340  D(77,90,100,88)        61.9056                                         !
 ! D341  D(77,90,100,104)      -60.7027                                         !
 ! D342  D(77,90,100,106)     -179.3706                                         !
 ! D343  D(87,90,100,88)       -60.0928                                         !
 ! D344  D(87,90,100,104)      177.2989                                         !
 ! D345  D(87,90,100,106)       58.631                                          !
 ! D346  D(102,90,100,88)     -176.2765                                         !
 ! D347  D(102,90,100,104)      61.1152                                         !
 ! D348  D(102,90,100,106)     -57.5527                                         !
 ! D349  D(78,98,99,75)          0.3375                                         !
 ! D350  D(78,98,99,108)       178.5581                                         !
 ! D351  D(109,98,99,75)      -177.7641                                         !
 ! D352  D(109,98,99,108)        0.4564                                         !
 ! D353  D(78,98,109,111)        2.3569                                         !
 ! D354  D(78,98,109,115)     -177.5846                                         !
 ! D355  D(99,98,109,111)     -179.7445                                         !
 ! D356  D(99,98,109,115)        0.3141                                         !
 ! D357  D(75,99,108,105)       -2.7882                                         !
 ! D358  D(75,99,108,114)      177.2573                                         !
 ! D359  D(98,99,108,105)      179.1009                                         !
 ! D360  D(98,99,108,114)       -0.8536                                         !
 ! D361  D(84,105,108,99)       32.5836                                         !
 ! D362  D(84,105,108,114)    -147.464                                          !
 ! D363  D(112,105,108,99)     -80.7096                                         !
 ! D364  D(112,105,108,114)     99.2428                                         !
 ! D365  D(113,105,108,99)     160.6092                                         !
 ! D366  D(113,105,108,114)    -19.4384                                         !
 ! D367  D(99,108,114,115)       0.4718                                         !
 ! D368  D(99,108,114,116)    -179.5924                                         !
 ! D369  D(105,108,114,115)   -179.4784                                         !
 ! D370  D(105,108,114,116)      0.4575                                         !
 ! D371  D(98,109,115,114)      -0.6734                                         !
 ! D372  D(98,109,115,117)     179.7189                                         !
 ! D373  D(111,109,115,114)    179.3861                                         !
 ! D374  D(111,109,115,117)     -0.2216                                         !
 ! D375  D(108,114,115,109)      0.2901                                         !
 ! D376  D(108,114,115,117)    179.8982                                         !
 ! D377  D(116,114,115,109)   -179.6448                                         !
 ! D378  D(116,114,115,117)     -0.0367                                         !
 --------------------------------------------------------------------------------
 Stoichiometry    C40H74N4O6P2Ru2
 Framework group  C1[X(C40H74N4O6P2Ru2)]
 Deg. of freedom   378
 Full point group                 C1      NOp   1
 Largest Abelian subgroup         C1      NOp   1
 Largest concise Abelian subgroup C1      NOp   1
                         Standard orientation:                         
 ---------------------------------------------------------------------
 Center     Atomic      Atomic             Coordinates (Angstroms)
 Number     Number       Type             X           Y           Z
 ---------------------------------------------------------------------
      1          6           0        0.449441    1.224883   -3.776389
      2          1           0        0.850011   -1.789010    2.235086
      3          8           0        0.887125   -1.267903   -1.444928
      4          1           0        1.577877   -3.690978    0.878995
      5          8           0        0.980951    0.884908    0.399537
      6          6           0        0.799213    2.229610   -2.698154
      7          1           0        1.265701   -1.625333    3.956641
      8          1           0        0.644030    3.267905   -3.058716
      9          6           0        1.657762   -1.928976    2.971315
     10          1           0        1.931118   -3.166057   -0.772941
     11          1           0        1.883582   -3.003100    3.032921
     12          1           0        0.121050    2.067332   -1.848963
     13          6           0        2.325051   -3.748653    0.075379
     14          1           0        2.428152   -4.807184   -0.217730
     15          1           0        1.573062    2.837851   -0.372164
     16         44           0        2.449619   -0.090441   -0.754676
     17          1           0        1.790482    0.719936    2.131467
     18          7           0        2.164943    2.065454   -2.185773
     19          6           0        2.410378    2.983795   -1.075235
     20          6           0        2.902983   -1.091498    2.670025
     21          1           0        2.200944    0.537291    3.874864
     22          1           0        3.529875   -4.029528    2.562152
     23          6           0        2.563966    0.393866    2.842854
     24          6           0        3.693272   -3.219809    0.520136
     25         15           0        3.429885   -1.363337    0.854466
     26          1           0        2.444938    4.042580   -1.393327
     27          6           0        4.219515   -4.022715    1.709647
     28          1           0        3.059949    1.300470   -3.904113
     29          1           0        2.344968    3.632087   -4.574341
     30          1           0        4.346139   -5.069297    1.385737
     31          6           0        3.206421    2.145889   -3.218955
     32          1           0        3.615863   -1.236561    4.683868
     33          6           0        3.539383   -0.758377   -2.058055
     34          6           0        4.014716   -1.421657    3.672397
     35          1           0        4.386621   -2.907118   -1.547879
     36          6           0        4.691478   -3.408261   -0.623969
     37          1           0        4.355251   -2.462074    3.642012
     38          1           0        4.751867   -4.486694   -0.845013
     39          6           0        3.660117    2.638394   -0.315808
     40          7           0        3.872259    1.328865   -0.072699
     41          6           0        3.270339    3.446405   -4.008835
     42          1           0        3.453625    1.031712    2.723336
     43          1           0        4.171713    1.964082   -2.721471
     44          1           0        5.203280   -3.666737    2.052124
     45          1           0        3.456566    4.320977   -3.366603
     46          6           0        5.122816   -0.554398    0.795792
     47          1           0        4.095984    3.391543   -4.734301
     48          1           0        4.887961   -0.762659    3.553929
     49          6           0        4.957735    0.926938    0.626822
     50          6           0        4.540490    3.604554    0.162958
     51          1           0        5.707420   -3.078965   -0.355642
     52          1           0        4.349297    4.656603   -0.051216
     53          1           0        5.594539   -0.951831   -0.117792
     54          1           0        5.778178   -0.795073    1.643428
     55          6           0        5.861727    1.854992    1.138573
     56          6           0        5.647543    3.209478    0.906754
     57          1           0        6.724713    1.509396    1.708334
     58          1           0        6.345771    3.952527    1.296380
     59          1           0        0.161017    0.800236   -0.132894
     60          8           0        4.156211   -1.098205   -2.987081
     61          6           0       -1.193005   -3.844728   -1.181515
     62          1           0       -0.264194    2.422615    1.010260
     63          8           0       -0.737977   -1.413727    0.853271
     64          1           0       -0.394359    1.230529    3.135837
     65          8           0       -1.364111    0.399540   -1.196884
     66          1           0       -0.164168   -0.631169    0.950560
     67          6           0       -1.710735   -2.774797   -2.118918
     68          1           0       -0.628766    4.160442    0.816219
[...]
 Alpha virt. eigenvalues --    4.76449   4.77022   4.77192   4.77471   4.77853
 Alpha virt. eigenvalues --    4.78130   4.78842   4.78991   4.79379   4.79629
 Alpha virt. eigenvalues --    4.80084   4.80723   4.80866   4.81356   4.81839
 Alpha virt. eigenvalues --    4.82022   4.82339   4.82633   4.82993   4.83392
 Alpha virt. eigenvalues --    4.83476   4.83960   4.84200   4.84400   4.84622
 Alpha virt. eigenvalues --    4.84936   4.85222   4.85279   4.85498   4.85739
 Alpha virt. eigenvalues --    4.85805   4.86121   4.86296   4.86596   4.86709
 Alpha virt. eigenvalues --    4.87036   4.87096   4.87383   4.87733   4.87932
 Alpha virt. eigenvalues --    4.88183   4.88355   4.88467   4.89114   4.89166
 Alpha virt. eigenvalues --    4.89448   4.89563   4.89844   4.90109   4.90166
 Alpha virt. eigenvalues --    4.90410   4.90768   4.91227   4.91387   4.91572
 Alpha virt. eigenvalues --    4.91778   4.91928   4.92128   4.92255   4.92662
 Alpha virt. eigenvalues --    4.93186   4.93362   4.93734   4.93919   4.94100
 Alpha virt. eigenvalues --    4.94259   4.94487   4.94916   4.95181   4.95538
 Alpha virt. eigenvalues --    4.96217   4.96446   4.96742   4.96928   4.97157
 Alpha virt. eigenvalues --    4.97404   4.97615   4.98036   4.98149   4.98475
 Alpha virt. eigenvalues --    4.98517   4.98891   4.99908   5.00056   5.00573
 Alpha virt. eigenvalues --    5.00638   5.01084   5.01212   5.01619   5.01980
 Alpha virt. eigenvalues --    5.02298   5.02757   5.02930   5.03751   5.04334
 Alpha virt. eigenvalues --    5.05125   5.05563   5.06374   5.06682   5.06909
 Alpha virt. eigenvalues --    5.07304   5.07723   5.08204   5.08383   5.08759
 Alpha virt. eigenvalues --    5.08913   5.09183   5.09560   5.09669   5.10081
 Alpha virt. eigenvalues --    5.10483   5.10620   5.11002   5.11242   5.11598
 Alpha virt. eigenvalues --    5.11974   5.12293   5.13031   5.13095   5.13780
 Alpha virt. eigenvalues --    5.13854   5.14100   5.14356   5.15239   5.15486
 Alpha virt. eigenvalues --    5.15736   5.16184   5.16569   5.16770   5.17277
 Alpha virt. eigenvalues --    5.17365   5.19006   5.19303   5.19389   5.19769
 Alpha virt. eigenvalues --    5.20120   5.20386   5.20671   5.20767   5.21289
 Alpha virt. eigenvalues --    5.21667   5.22286   5.22719   5.22877   5.23332
 Alpha virt. eigenvalues --    5.23431   5.23640   5.23761   5.23806   5.24318
 Alpha virt. eigenvalues --    5.24789   5.24866   5.25478   5.25823   5.26041
 Alpha virt. eigenvalues --    5.26370   5.26673   5.27006   5.27202   5.27242
 Alpha virt. eigenvalues --    5.27820   5.28098   5.28258   5.28530   5.28742
 Alpha virt. eigenvalues --    5.28923   5.29089   5.29643   5.29930   5.30234
 Alpha virt. eigenvalues --    5.30355   5.30775   5.30859   5.31446   5.31510
 Alpha virt. eigenvalues --    5.31907   5.32285   5.32862   5.33469   5.34044
 Alpha virt. eigenvalues --    5.34508   5.34557   5.34986   5.35429   5.35650
 Alpha virt. eigenvalues --    5.35879   5.36037   5.36115   5.36301   5.36408
 Alpha virt. eigenvalues --    5.36705   5.36953   5.37060   5.37270   5.37579
 Alpha virt. eigenvalues --    5.37808   5.38006   5.38175   5.38437   5.38576
 Alpha virt. eigenvalues --    5.38795   5.38895   5.39207   5.39410   5.39732
 Alpha virt. eigenvalues --    5.40022   5.40157   5.40624   5.40860   5.41075
 Alpha virt. eigenvalues --    5.41342   5.41618   5.41795   5.41945   5.42070
 Alpha virt. eigenvalues --    5.42258   5.42634   5.42783   5.43471   5.43816
 Alpha virt. eigenvalues --    5.44134   5.44345   5.44786   5.44986   5.45507
 Alpha virt. eigenvalues --    5.45748   5.46064   5.46274   5.46466   5.46727
 Alpha virt. eigenvalues --    5.46967   5.47251   5.47723   5.48065   5.48441
 Alpha virt. eigenvalues --    5.48667   5.49552   5.49587   5.49888   5.50108
 Alpha virt. eigenvalues --    5.50397   5.50616   5.50824   5.51124   5.51408
 Alpha virt. eigenvalues --    5.51542   5.51742   5.52104   5.52559   5.52717
 Alpha virt. eigenvalues --    5.53044   5.53418   5.53679   5.53859   5.53934
 Alpha virt. eigenvalues --    5.54442   5.54720   5.55299   5.55683   5.56283
 Alpha virt. eigenvalues --    5.56459   5.56516   5.57019   5.57320   5.57465
 Alpha virt. eigenvalues --    5.57674   5.58045   5.58435   5.59196   5.59260
 Alpha virt. eigenvalues --    5.59299   5.60391   5.60484   5.61066   5.61161
 Alpha virt. eigenvalues --    5.61211   5.61775   5.62590   5.62845   5.63189
 Alpha virt. eigenvalues --    5.63414   5.64095   5.64921   5.65363   5.66167
 Alpha virt. eigenvalues --    5.66311   5.67537   5.67986   5.68587   5.69771
 Alpha virt. eigenvalues --    5.70956   5.71204   5.71805   5.72916   5.73563
 Alpha virt. eigenvalues --    5.74175   5.75515   5.76455   5.78085   5.79569
 Alpha virt. eigenvalues --    5.80093   5.82436   5.84315   5.87180   5.87782
 Alpha virt. eigenvalues --    5.88518   5.88909   5.90967   5.93569   5.94654
 Alpha virt. eigenvalues --    5.95526   5.99812   6.00551   6.00866   6.01325
 Alpha virt. eigenvalues --    6.01586   6.01654   6.02177   6.02634   6.02885
 Alpha virt. eigenvalues --    6.03251   6.03554   6.03994   6.04373   6.05039
 Alpha virt. eigenvalues --    6.05234   6.05377   6.06838   6.06945   6.07258
 Alpha virt. eigenvalues --    6.07912   6.08450   6.09009   6.09306   6.09995
 Alpha virt. eigenvalues --    6.10375   6.10965   6.11522   6.11832   6.12238
 Alpha virt. eigenvalues --    6.13265   6.13827   6.14702   6.14995   6.15498
 Alpha virt. eigenvalues --    6.15908   6.17351   6.17952   6.19224   6.19712
 Alpha virt. eigenvalues --    6.19948   6.20161   6.21171   6.21972   6.22940
 Alpha virt. eigenvalues --    6.23596   6.24006   6.24454   6.25738   6.26807
 Alpha virt. eigenvalues --    6.27392   6.28318   6.29436   6.30197   6.30315
 Alpha virt. eigenvalues --    6.31204   6.31625   6.33760   6.34393   6.35614
 Alpha virt. eigenvalues --    6.35747   6.41039   6.42680   6.44429   6.44966
 Alpha virt. eigenvalues --    6.49526   6.52222   6.56281   6.57977   6.58701
 Alpha virt. eigenvalues --    6.59540   6.61158   6.63930   6.64695   6.67177
 Alpha virt. eigenvalues --    6.69145   6.72389   6.74093   6.75907   6.76806
 Alpha virt. eigenvalues --    6.78199   6.78950   6.80066   6.81810   6.83379
 Alpha virt. eigenvalues --    6.85878   6.86797   6.87870   6.89114   6.91860
 Alpha virt. eigenvalues --    6.94530   6.94798   6.96580   6.97827   6.98798
 Alpha virt. eigenvalues --    6.99229   7.00295   7.08354   7.08499   7.31334
 Alpha virt. eigenvalues --    7.32616   7.38982   7.43164   7.51289   7.53116
 Alpha virt. eigenvalues --    7.53579   7.63371   8.74521   8.79482   9.81935
 Alpha virt. eigenvalues --    9.87327   9.98422  10.06326  10.13943  10.20355
 Alpha virt. eigenvalues --   10.86770  10.98252  12.32065  12.32891  12.36358
 Alpha virt. eigenvalues --   12.43707  12.72552  12.80622  12.86874  12.95558
 Alpha virt. eigenvalues --   13.05897  13.06380  13.16053  13.18686  13.21324
 Alpha virt. eigenvalues --   13.24394  13.27492  13.31945  13.37293  13.44006
 Alpha virt. eigenvalues --   13.52964  13.56314  13.67229  13.68074  13.69469
 Alpha virt. eigenvalues --   13.69747  13.75953  13.81254  13.87485  13.88988
 Alpha virt. eigenvalues --   13.89892  13.94237  13.95135  13.99396  14.03286
 Alpha virt. eigenvalues --   14.08975  14.24067  14.30400  14.31745  14.39834
 Alpha virt. eigenvalues --   15.06731  15.08261  35.55944  35.59746  35.64686
 Alpha virt. eigenvalues --   35.69946  35.79081  35.81294  46.35105  46.40031
          Condensed to atoms (all electrons):
 Mulliken charges:
               1
     1  C   -0.366775
     2  H    0.131596
     3  O   -0.772885
     4  H    0.127065
     5  O   -0.822856
     6  C   -0.107174
     7  H    0.107440
     8  H    0.104435
     9  C   -0.396702
    10  H    0.124452
    11  H    0.126604
    12  H    0.110353
    13  C   -0.352051
    14  H    0.109428
    15  H    0.185976
    16  Ru   1.048498
    17  H    0.151346
    18  N   -0.186645
    19  C   -0.148581
    20  C    0.026853
    21  H    0.109309
    22  H    0.121401
    23  C   -0.409921
    24  C    0.003396
    25  P    0.057992
    26  H    0.120005
    27  C   -0.333837
    28  H    0.125105
    29  H    0.110056
    30  H    0.108789
    31  C   -0.119373
    32  H    0.108105
    33  C   -0.188079
    34  C   -0.335828
    35  H    0.142672
    36  C   -0.374551
    37  H    0.124520
    38  H    0.111544
    39  C    0.109338
    40  N   -0.156517
    41  C   -0.330375
    42  H    0.125514
    43  H    0.129833
    44  H    0.113757
    45  H    0.109565
    46  C   -0.239173
    47  H    0.114854
    48  H    0.112946
    49  C    0.045356
    50  C   -0.150742
    51  H    0.119342
    52  H    0.161452
    53  H    0.171971
    54  H    0.143333
    55  C   -0.123852
    56  C   -0.134607
    57  H    0.164016
    58  H    0.163293
    59  H    0.301931
    60  O   -0.298344
    61  C   -0.375601
    62  H    0.132721
    63  O   -0.765383
    64  H    0.128694
    65  O   -0.822956
    66  H    0.298099
    67  C   -0.148171
    68  H    0.102753
    69  C   -0.393267
    70  H    0.127121
    71  H    0.122222
    72  C   -0.343592
    73  H    0.108753
    74  H    0.182400
    75  Ru   1.021446
    76  H    0.155393
    77  N   -0.205225
    78  C   -0.145483
    79  C    0.026774
    80  H    0.105399
    81  H    0.120623
    82  C   -0.412836
    83  C    0.009086
    84  P    0.070113
    85  H    0.127424
    86  C   -0.336935
    87  H    0.129078
    88  H    0.112671
    89  H    0.108208
    90  C   -0.125287
    91  H    0.106860
    92  C   -0.203594
    93  C   -0.336848
    94  H    0.143167
    95  C   -0.379189
    96  H    0.123429
    97  H    0.110807
    98  C    0.114245
    99  N   -0.142124
   100  C   -0.330859
   101  H    0.122967
   102  H    0.142955
   103  H    0.113000
   104  H    0.111637
   105  C   -0.240435
   106  H    0.117501
   107  H    0.112134
   108  C    0.026904
   109  C   -0.150685
   110  H    0.118879
   111  H    0.162948
   112  H    0.172237
   113  H    0.140581
   114  C   -0.121289
   115  C   -0.137277
   116  H    0.164312
   117  H    0.163312
   118  H    0.302937
   119  O   -0.303565
   120  H    0.127534
   121  H    0.129836
   122  H    0.118050
   123  H    0.137655
   124  H    0.128462
   125  H    0.116911
   126  H    0.147589
   127  H    0.116207
   128  H    0.303991
 Sum of Mulliken charges =  -0.00000
 Mulliken charges with hydrogens summed into heavy atoms:
               1
     1  C    0.008646
     3  O   -0.468894
     5  O   -0.520925
     6  C    0.107615
     9  C   -0.031062
    13  C    0.008893
    16  Ru   1.048498
    18  N   -0.186645
    19  C    0.157400
    20  C    0.026853
    23  C   -0.023752
    24  C    0.003396
    25  P    0.057992
    27  C    0.010111
    31  C    0.135565
    33  C   -0.188079
    34  C    0.009743
    36  C   -0.000992
    39  C    0.109338
    40  N   -0.156517
    41  C    0.004100
    46  C    0.076131
    49  C    0.045356
    50  C    0.010710
    55  C    0.040164
    56  C    0.028685
    60  O   -0.298344
    61  C    0.007427
    63  O   -0.467284
    65  O   -0.520019
    67  C    0.115624
    69  C   -0.035570
    72  C    0.020976
    75  Ru   1.021446
    77  N   -0.205225
    78  C    0.164341
    79  C    0.026774
    82  C   -0.029077
    83  C    0.009086
    84  P    0.070113
    86  C    0.004897
    90  C    0.146746
    92  C   -0.203594
    93  C    0.005575
    95  C   -0.006336
    98  C    0.114245
    99  N   -0.142124
   100  C    0.010950
   105  C    0.072383
   108  C    0.026904
   109  C    0.012263
   114  C    0.043023
   115  C    0.026035
   119  O   -0.303565
 Electronic spatial extent (au):  <R**2>=          35462.9803
 Charge=             -0.0000 electrons
 Dipole moment (field-independent basis, Debye):
    X=             -0.5114    Y=              9.4421    Z=              1.8002  Tot=              9.6258
 Quadrupole moment (field-independent basis, Debye-Ang):
   XX=           -260.0979   YY=           -350.5147   ZZ=           -364.3845
   XY=             -1.8055   XZ=             39.5200   YZ=              4.4613
 Traceless Quadrupole moment (field-independent basis, Debye-Ang):
   XX=             64.9011   YY=            -25.5157   ZZ=            -39.3855
   XY=             -1.8055   XZ=             39.5200   YZ=              4.4613
 Octapole moment (field-independent basis, Debye-Ang**2):
  XXX=            -53.2634  YYY=             27.1404  ZZZ=            -33.6687  XYY=             85.6907
  XXY=            168.1433  XXZ=             12.3222  XZZ=            -90.1339  YZZ=             31.6841
  YYZ=            -39.0641  XYZ=            -96.8804
 Hexadecapole moment (field-independent basis, Debye-Ang**3):
 XXXX=         -23256.3945 YYYY=         -10785.0463 ZZZZ=          -9872.7638 XXXY=           -142.8543
 XXXZ=           1214.9219 YYYX=            344.7512 YYYZ=             72.8527 ZZZX=            117.2480
 ZZZY=            -28.3172 XXYY=          -5729.9482 XXZZ=          -5869.4041 YYZZ=          -3586.8816
 XXYZ=            128.7279 YYXZ=            103.2068 ZZXY=             63.1963
 N-N= 1.078911428642D+04 E-N=-2.881857011462D+04  KE= 2.970145578265D+03
 1\1\GINC-NODE254\SP\RPBE1PBE\GenECP\C40H74N4O6P2Ru2\JS1212\28-Feb-2020
 \0\\# genecp pbe1pbe EmpiricalDispersion=GD3BJ scrf=(SMD,solvent=water
 ) geom=allcheck\\Title Card Required\\0,1\C,0,-0.4762262943,-5.2806244
 372,-2.413065041\H,0,0.9304436405,-2.6708865698,3.6360993922\O,0,-0.94
 43199786,-4.2272329838,0.8292365174\H,0,-1.3446888944,-3.419189028,4.1
 361708946\O,0,1.8881753014,-4.0849016875,0.8757479977\C,0,1.0023977506
 ,-5.4054814128,-2.1089475795\H,0,2.1563806494,-2.4218104391,4.90036910
 47\H,0,1.5782712565,-5.6351062245,-3.0297009038\C,0,1.3355221598,-3.08
 26607877,4.5744167519\H,0,-1.9351409849,-4.4844026493,2.8532449758\H,0
 ,0.551119703,-3.0227312558,5.3423067204\H,0,1.3546425003,-4.4364721742
 ,-1.7290642141\C,0,-1.8354825955,-4.3837416864,3.9460321524\H,0,-2.836
 6053108,-4.352857771,4.408448528\H,0,2.9760775932,-5.3453671269,-0.534
 1448457\Ru,0,0.5144740121,-5.6264794123,1.2964408139\H,0,2.8919128138,
 -4.1119745746,2.5109597729\N,0,1.2892671066,-6.3978861684,-1.066097631
 3\C,0,2.7130832425,-6.3976039681,-0.7349897523\C,0,1.8908453273,-4.500
 8937362,4.4229233394\H,0,3.8606270505,-3.7728320827,3.9900971428\H,0,-
 0.4256169995,-4.4509153224,6.3381651299\C,0,3.1338258819,-4.4611238451
 ,3.5259689567\C,0,-1.0493144806,-5.5583694926,4.5390775788\P,0,0.58904
 79399,-5.6072121843,3.5690141681\H,0,3.3447932805,-6.7857151854,-1.555
 7911291\C,0,-0.900491412,-5.3969061411,6.0517920561\H,0,-0.3110900587,
 -7.6874795154,-1.4048198671\H,0,1.0426391106,-7.8211144909,-3.53704885
 81\H,0,-1.9097327148,-5.4015536185,6.4964210947\C,0,0.7847144037,-7.74
 4881688,-1.3655009369\H,0,3.0782545679,-4.3379166631,6.1972688933\C,0,
 -0.7386992436,-6.9536519367,1.2701161343\C,0,2.3342104273,-5.041221640
 2,5.7871730622\H,0,-2.039593063,-7.0405046312,3.2437704448\C,0,-1.8357
 411736,-6.849168101,4.3018469728\H,0,1.527173813,-5.126846219,6.522505
 4492\H,0,-2.8107048468,-6.7479953007,4.8065596541\C,0,3.0035457211,-7.
 151208392,0.5321295224\N,0,2.1470320257,-6.9572530428,1.5557194237\C,0
 ,1.3144026984,-8.3934875887,-2.6375379427\H,0,3.6208546781,-5.44656974
 42,3.4602011642\H,0,1.0201162741,-8.3799288669,-0.497381071\H,0,-0.340
 0903729,-6.227401681,6.507897183\H,0,2.4091484905,-8.5094411891,-2.627
 2633722\C,0,1.3044830877,-7.3278505877,3.7957242824\H,0,0.879887632,-9
 .3991594057,-2.7415667611\H,0,2.8372416478,-6.0162495937,5.7026069626\
 C,0,2.3445079206,-7.5738746103,2.7431177114\C,0,4.1176353902,-7.972574
 5096,0.6801227965\H,0,-1.3399156627,-7.7309407589,4.7368269255\H,0,4.7
 92556808,-8.1169878259,-0.164186697\H,0,0.4605822365,-8.0118529548,3.6
 084158509\H,0,1.6892575888,-7.5379576851,4.8025572777\C,0,3.450995472,
 -8.3953351459,2.9462479027\C,0,4.3494761152,-8.5931416593,1.9032458848
 \H,0,3.5961086457,-8.874566038,3.9147979071\H,0,5.2210914272,-9.235616
 3156,2.0409608414\H,0,1.4333362464,-3.5343120791,0.2027576917\O,0,-1.5
 369018212,-7.7865058478,1.10196325\C,0,-2.940539574,-1.6878554204,1.60
 57820384\H,0,3.3794839078,-3.0766822756,-0.1476788043\O,0,0.252957402,
 -1.8585624499,1.7778479113\H,0,3.7588560939,-1.88203596,1.94635792\O,0
 ,0.3517097472,-2.4842470859,-0.9574544105\H,0,0.9651237504,-2.51002389
 47,1.6380796933\C,0,-2.7237735426,-1.8199425082,0.1134386489\H,0,4.590
 0470842,-3.210427219,-1.4542980873\C,0,4.1591306827,-2.5282996331,-0.7
 007062096\H,0,2.3368191425,-1.0131343891,2.5413281781\H,0,4.9649592512
 ,-2.2797989184,0.0049491747\C,0,3.4098434437,-0.9096799122,2.319325436
 4\H,0,3.9549410266,-0.6857342256,3.2521555621\H,0,-1.3594271827,-1.914
 0368494,-2.0351975494\Ru,0,0.3239947646,-0.6816339639,0.0729154564\H,0
 ,1.7899153301,-2.2454683341,-2.1707844939\N,0,-1.9359485913,-0.7069958
 56,-0.4608423267\C,0,-1.8056560319,-0.9118509132,-1.9163816226\C,0,3.6
 188876542,-1.2919599598,-1.4230622319\H,0,3.2556676956,-2.4347392544,-
 3.2034569263\H,0,5.6239166395,-0.5365653407,0.6834524759\C,0,2.6889770
 265,-1.7421068473,-2.5573441384\C,0,3.651400871,0.2182356354,1.3113225
 778\P,0,2.5855478767,-0.2408019602,-0.2004370057\H,0,-2.778214183,-0.8
 621242859,-2.4341273089\C,0,5.1462459663,0.3837974236,1.040449884\H,0,
 -2.4931501515,0.7675514614,0.9086581428\H,0,-4.6834220583,0.1065625108
 ,-0.1653100599\H,0,5.6378289121,0.6585908214,1.9889421793\C,0,-2.55167
 34602,0.6107014599,-0.174906507\H,0,5.29145792,-1.2077181376,-2.757938
 7748\C,0,0.0933843511,0.7981279816,1.1232042619\C,0,4.7742223453,-0.51
 90565895,-2.0685511899\H,0,2.1001108414,1.5087896069,2.1936793815\C,0,
 3.1588678183,1.5331693372,1.9182685763\H,0,5.5205036435,-0.1472914933,
 -1.3585135965\H,0,3.7308198407,1.7150048253,2.8433676934\C,0,-0.829522
 3226,0.0582569017,-2.5068607988\N,0,0.2424681535,0.3112217063,-1.73286
 17676\C,0,-3.9852977949,0.8079737285,-0.6447413995\H,0,2.3807388484,-0
 .8952582647,-3.1897224108\H,0,-1.9044106843,1.3749134228,-0.6295612086
 \H,0,5.352677404,1.1911232365,0.3214154967\H,0,-4.0953644052,0.7089557
 907,-1.7351486787\C,0,2.3412137057,1.3475850207,-1.1742492815\H,0,-4.3
 057618216,1.8262106697,-0.3774992147\H,0,4.4188331344,0.3250288467,-2.
 678182214\C,0,1.2211272846,1.1435851397,-2.1465647162\C,0,-0.955276430
 9,0.6418173666,-3.7629244414\H,0,3.3372894284,2.3947839355,1.256255825
 7\H,0,-1.8330256472,0.4280214026,-4.3736824607\H,0,2.0172657818,2.0904
 512433,-0.4271160692\H,0,3.2432423104,1.7350749889,-1.6662832567\C,0,1
 .1493689326,1.7481833337,-3.3993217585\C,0,0.0511711441,1.4912295187,-
 4.2153393501\H,0,1.9497082635,2.4134190652,-3.7246080995\H,0,-0.022628
 5446,1.9575363189,-5.1994409826\H,0,-0.195651711,-3.1139439524,-0.4357
 511733\O,0,-0.1623921338,1.6821713941,1.8383698215\H,0,-0.6285368441,-
 4.4166095656,-3.0755497497\H,0,-1.0332709439,-5.0928628988,-1.48175166
 39\H,0,-0.8904492466,-6.1685861997,-2.9158623321\H,0,-1.9696253851,-1.
 5725351497,2.1112535148\H,0,-3.4035021933,-2.6145648169,1.9728146781\H
 ,0,-3.6053551743,-0.8524001799,1.8756987521\H,0,-2.1675627208,-2.74915
 56907,-0.0773479225\H,0,-3.689882579,-1.8935772525,-0.423269219\H,0,-0
 .6813577922,-3.4163087723,1.3202384574\\Version=ES64L-G16RevA.03\State
 =1-A\HF=-3110.0300483\RMSD=1.019e-09\Dipole=3.3258839,-0.3749486,-1.77
 19594\Quadrupole=-16.947531,12.3386738,4.6088572,-20.7945298,7.2634549
 ,-43.9703761\PG=C01 [X(C40H74N4O6P2Ru2)]\\@


 ERWIN WITH HIS PSI CAN DO
 CALCULATIONS QUITE A FEW.
 BUT ONE THING HAS NOT BEEN SEEN
 JUST WHAT DOES PSI REALLY MEAN.
 -- WALTER HUCKEL, TRANS. BY FELIX BLOCH
 Job cpu time:       3 days  9 hours 32 minutes  4.7 seconds.
 Elapsed time:       0 days  4 hours  5 minutes 16.2 seconds.
 File lengths (MBytes):  RWF=   4663 Int=      0 D2E=      0 Chk=    503 Scr=      1
 Normal termination of Gaussian 16 at Fri Feb 28 14:26:56 2020.
