 Entering Gaussian System, Link 0=g16
 Initial command:
 /cluster/chemistry/gaussian/g16/l1.exe "/scratch/js1212.578217/scratch/Gau-2061.inp" -scrdir="/scratch/js1212.578217/scratch/"
 Entering Link 1 = /cluster/chemistry/gaussian/g16/l1.exe PID=      2062.
  
 Copyright (c) 1988,1990,1992,1993,1995,1998,2003,2009,2016,
            Gaussian, Inc.  All Rights Reserved.
  
 This is part of the Gaussian(R) 16 program.  It is based on
 the Gaussian(R) 09 system (copyright 2009, Gaussian, Inc.),
 the Gaussian(R) 03 system (copyright 2003, Gaussian, Inc.),
 the Gaussian(R) 98 system (copyright 1998, Gaussian, Inc.),
 the Gaussian(R) 94 system (copyright 1995, Gaussian, Inc.),
 the Gaussian 92(TM) system (copyright 1992, Gaussian, Inc.),
 the Gaussian 90(TM) system (copyright 1990, Gaussian, Inc.),
 the Gaussian 88(TM) system (copyright 1988, Gaussian, Inc.),
 the Gaussian 86(TM) system (copyright 1986, Carnegie Mellon
 University), and the Gaussian 82(TM) system (copyright 1983,
 Carnegie Mellon University). Gaussian is a federally registered
 trademark of Gaussian, Inc.
  
 This software contains proprietary and confidential information,
 including trade secrets, belonging to Gaussian, Inc.
  
 This software is provided under written license and may be
 used, copied, transmitted, or stored only in accord with that
 written license.
  
 The following legend is applicable only to US Government
 contracts under FAR:
  
                    RESTRICTED RIGHTS LEGEND
  
 Use, reproduction and disclosure by the US Government is
 subject to restrictions as set forth in subparagraphs (a)
 and (c) of the Commercial Computer Software - Restricted
 Rights clause in FAR 52.227-19.
  
 Gaussian, Inc.
 340 Quinnipiac St., Bldg. 40, Wallingford CT 06492
  
  
 ---------------------------------------------------------------
 Warning -- This program may not be used in any manner that
 competes with the business of Gaussian, Inc. or will provide
 assistance to any competitor of Gaussian, Inc.  The licensee
 of this program is prohibited from giving any competitor of
 Gaussian, Inc. access to this program.  By using this program,
 the user acknowledges that Gaussian, Inc. is engaged in the
 business of creating and licensing software in the field of
 computational chemistry and represents and warrants to the
 licensee that it is not a competitor of Gaussian, Inc. and that
 it will not use this program in any manner prohibited above.
 ---------------------------------------------------------------
  

 Cite this work as:
 Gaussian 16, Revision A.03,
 M. J. Frisch, G. W. Trucks, H. B. Schlegel, G. E. Scuseria, 
 M. A. Robb, J. R. Cheeseman, G. Scalmani, V. Barone, 
 G. A. Petersson, H. Nakatsuji, X. Li, M. Caricato, A. V. Marenich, 
 J. Bloino, B. G. Janesko, R. Gomperts, B. Mennucci, H. P. Hratchian, 
 J. V. Ortiz, A. F. Izmaylov, J. L. Sonnenberg, D. Williams-Young, 
 F. Ding, F. Lipparini, F. Egidi, J. Goings, B. Peng, A. Petrone, 
 T. Henderson, D. Ranasinghe, V. G. Zakrzewski, J. Gao, N. Rega, 
 G. Zheng, W. Liang, M. Hada, M. Ehara, K. Toyota, R. Fukuda, 
 J. Hasegawa, M. Ishida, T. Nakajima, Y. Honda, O. Kitao, H. Nakai, 
 T. Vreven, K. Throssell, J. A. Montgomery, Jr., J. E. Peralta, 
 F. Ogliaro, M. J. Bearpark, J. J. Heyd, E. N. Brothers, K. N. Kudin, 
 V. N. Staroverov, T. A. Keith, R. Kobayashi, J. Normand, 
 K. Raghavachari, A. P. Rendell, J. C. Burant, S. S. Iyengar, 
 J. Tomasi, M. Cossi, J. M. Millam, M. Klene, C. Adamo, R. Cammi, 
 J. W. Ochterski, R. L. Martin, K. Morokuma, O. Farkas, 
 J. B. Foresman, and D. J. Fox, Gaussian, Inc., Wallingford CT, 2016.
 
 ******************************************
 Gaussian 16:  ES64L-G16RevA.03 25-Dec-2016
                28-Feb-2020 
 ******************************************
 %rwf=/scratch/js1212.578217/F-R2-R2-Up-GP-Disp-SMD.rwf
 %nosave
 %nprocshared=20
 Will use up to   20 processors via shared memory.
 %mem=3000MB
 %chk=/scratch/js1212.578217/F-R2-R2-Up-GPOF-Disp.chk
 ----------------------------------------------------------------------
 # genecp pbe1pbe EmpiricalDispersion=GD3BJ scrf=(SMD,solvent=water) ge
 om=allcheck
 ----------------------------------------------------------------------
 1/29=7,38=1,172=1/1;
 2/12=2,40=1/2;
 3/5=7,11=2,14=-4,16=1,17=8,25=1,30=1,70=32201,72=1,74=-13,124=41/1,2,3;
 4//1;
 5/5=2,38=5,53=1/2;
 6/7=2,8=2,9=2,10=2,28=1/1;
 99/5=1,9=1/99;
 Structure from the checkpoint file:  "/scratch/js1212.578217/F-R2-R2-Up-GPOF-Disp.chk"
 -------------------
 Title Card Required
 -------------------
 Charge =  0 Multiplicity = 1
 Redundant internal coordinates found in file.  (old form).
 C,0,-0.4611177126,-9.6012825726,1.6765268694
 H,0,5.097442427,-7.8607013955,-1.3521347901
 O,0,2.6036929759,-8.2558843762,1.3049893747
 H,0,5.694129988,-6.9437654838,0.9176257198
 O,0,2.676955094,-9.687100075,-1.0894912141
 C,0,-0.0642779719,-10.444786461,0.4839528894
 H,0,6.4050545933,-8.1890444283,-2.5189074464
 C,0,6.1179210453,-8.2638868312,-1.4568369119
 H,0,4.5036003347,-7.5833936832,2.05929459
 H,0,6.8023331625,-7.6144363407,-0.8913094495
 C,0,5.5824099073,-7.4373987499,1.8935620684
 H,0,5.9911767435,-6.7626026661,2.6650536469
 H,0,1.495672037,-11.3701812708,-1.2888117616
 Ru,0,3.1627690178,-10.1853781234,0.871240269
 H,0,4.3394851175,-10.3877450378,-1.9243006542
 N,0,1.1120939743,-11.299242623,0.7395520551
 C,0,1.3992208207,-12.0984015307,-0.4665941018
 C,0,6.2254714431,-9.7259912569,-1.0236331611
 H,0,5.7716876447,-10.3834028214,-3.0159306401
 H,0,8.0155770674,-8.0278638374,0.7295420069
 C,0,5.4185515658,-10.5994740983,-1.9933164844
 C,0,6.3412762825,-8.7694775063,1.9479543256
 P,0,5.4446922853,-9.9041531928,0.7090479011
 H,0,0.5889840071,-12.8111135613,-0.6973387135
 C,0,7.8283027751,-8.5446901909,1.679009025
 H,0,0.8427642767,-11.5201284493,2.7958152304
 H,0,-1.2352456096,-12.5711996143,1.8045074364
 H,0,8.2290703034,-7.9035186713,2.482220838
 C,0,0.9160678093,-12.1737121309,1.9180918229
 H,0,8.0024222906,-10.1077041269,-2.155262003
 C,0,3.2684310924,-10.5284562398,2.6643584441
 C,0,7.6817628811,-10.1951563504,-1.1033791437
 H,0,5.1804896667,-9.5014082651,3.6698258293
 C,0,6.2185135799,-9.3497766254,3.3579570617
 H,0,8.3781362433,-9.6032533157,-0.5008018248
 H,0,6.6677711126,-8.6301269654,4.0622749316
 C,0,2.7116895338,-12.8100699619,-0.3294652701
 N,0,3.6721443329,-12.0884847434,0.2800305196
 C,0,-0.2805393147,-13.1125073107,1.8747683851
 H,0,5.5915840859,-11.6715206378,-1.8136417445
 H,0,1.8397007435,-12.7567373684,2.0470196418
 H,0,8.4042533816,-9.4825192793,1.6915612872
 H,0,-0.2307561327,-13.8286995215,1.0407520609
 C,0,5.8831056372,-11.6777484694,1.1508337053
 H,0,-0.302446582,-13.6995033424,2.805238548
 H,0,7.7944871241,-11.2547422149,-0.8286088662
 C,0,4.9135762119,-12.5896641588,0.4603197317
 C,0,2.9715394937,-14.0941008958,-0.7940506685
 H,0,6.7684275485,-10.2970128721,3.4716756212
 H,0,2.1790131876,-14.6649663143,-1.2792329431
 H,0,5.7193149863,-11.7518717285,2.2383738114
 H,0,6.9235602817,-11.9646819063,0.9461238924
 C,0,5.2278100489,-13.8692413645,0.0094930134
 C,0,4.2478182146,-14.6269190117,-0.6265157521
 H,0,6.23491355,-14.2608102482,0.1561204187
 H,0,4.477140513,-15.6317421824,-0.9854994528
 H,0,2.9653484538,-8.7609056665,-1.2023899279
 O,0,3.2165356206,-10.7168847862,3.8128233807
 C,0,0.6737461026,-5.7944476913,2.1327720483
 H,0,2.8712623139,-8.9865121143,-3.1831397595
 O,0,0.5974811255,-7.5744533757,-0.5827746993
 H,0,0.3939397941,-9.3543999407,-3.4721076885
 O,0,3.2244080852,-6.7986315029,-1.0878653122
 C,0,1.9970427149,-5.2898365823,1.5980895344
 H,0,3.9994329875,-9.1206531366,-4.5501028321
 C,0,3.0014668104,-8.758902587,-4.2509056802
 H,0,-0.5313892559,-8.2691920458,-2.4204766337
 H,0,2.2625379837,-9.3445176524,-4.8171349521
 C,0,-0.4368516597,-8.633707198,-3.4561766254
 H,0,-1.357001436,-9.1687481882,-3.746659786
 H,0,3.8342277751,-5.0135682345,-0.1508528662
 Ru,0,1.3843004684,-5.9227697524,-1.5372208433
 H,0,4.0775770065,-6.6145055014,-2.8224395277
 N,0,1.8680195443,-4.5801277876,0.3073966739
 C,0,3.1980555057,-4.1117513899,-0.1260542297
 C,0,2.909556257,-7.2633216724,-4.557403839
 H,0,5.0244656519,-7.020379468,-4.2931636745
 H,0,0.7045180168,-8.752791891,-5.974720067
 C,0,4.1031492763,-6.5431191425,-3.9187447157
 C,0,-0.2042801189,-7.4729812823,-4.4312266479
 P,0,1.3273291841,-6.5618684052,-3.7549621344
 H,0,3.6237596606,-3.3622232925,0.5622497572
 C,0,-0.0831832205,-7.9978409623,-5.8611347259
 H,0,-0.0758278967,-3.8697976674,0.5802479838
 H,0,1.2201692009,-2.7813903851,2.4573229423
 H,0,-1.0376189613,-8.4809376395,-6.1303357149
 C,0,0.9180567769,-3.446421012,0.3925088917
 H,0,3.9765002096,-7.4186950391,-6.4073232514
 C,0,-0.297463558,-5.2151430674,-1.6395479155
 C,0,3.0004246608,-7.0316110471,-6.0691214219
 H,0,-1.6226961954,-6.1379390134,-3.4004920428
 C,0,-1.4199761883,-6.5449755606,-4.3959067288
 H,0,2.2278061157,-7.5457721961,-6.6497777436
 H,0,-2.3049118368,-7.1320557714,-4.6927887939
 C,0,3.1445682678,-3.5874406243,-1.5285894112
 N,0,2.3474415887,-4.291707571,-2.3536707373
 C,0,1.225252677,-2.3801340042,1.4335127728
 H,0,4.147628253,-5.4849804079,-4.2182939518
 H,0,0.8710458675,-2.9867353162,-0.6056479465
 H,0,0.0910669488,-7.1917035891,-6.5897594627
 H,0,2.1931925718,-1.8845385568,1.2647114258
 C,0,1.280266255,-4.8162179882,-4.4505942038
 H,0,0.4488677801,-1.6020933464,1.3805882716
 H,0,2.9804127041,-5.9626038302,-6.329130856
 C,0,2.2135122021,-3.95531428,-3.6537441998
 C,0,3.864842001,-2.4939162285,-1.9967570936
 H,0,-1.3315373763,-5.7132217654,-5.1120892855
 H,0,4.5028940731,-1.9326210053,-1.313370031
 H,0,0.2503139982,-4.4662247389,-4.2719123907
 H,0,1.4788772804,-4.7398369697,-5.528279638
 C,0,2.9160437248,-2.8714142678,-4.175460097
 C,0,3.7519063205,-2.1375242761,-3.3383554492
 H,0,2.8046759179,-2.611372607,-5.2285111361
 H,0,4.309376361,-1.2848979823,-3.73030796
 H,0,3.0949549664,-7.2323666671,-0.2148362634
 O,0,-1.3761655086,-4.7788290089,-1.5719584127
 H,0,-0.9108474591,-11.0750076164,0.1470641902
 H,0,0.2056112333,-9.7866666592,-0.3491194049
 H,0,-0.9463558952,-10.1851366808,2.4743942466
 H,0,-1.1617265561,-8.8262709101,1.3378086449
 H,0,0.4222354386,-9.0894125969,2.0870902361
 H,0,2.496680843,-4.6259887775,2.3307908297
 H,0,2.650212165,-6.158047954,1.4317758357
 H,0,0.0070836303,-4.9890355211,2.479186278
 H,0,0.8753438276,-6.4586414378,2.9848172945
 H,0,0.1682027759,-6.3914410678,1.3585938931
 H,0,1.7667407387,-8.090246686,0.8235053214
 H,0,1.1476202911,-8.2945570105,-0.9375917156
 Recover connectivity data from disk.
                           ----------------------------
                           !    Current Parameters    !
                           ! (Angstroms and Degrees)  !
 --------------------------                            --------------------------
 ! Name  Definition              Value                                          !
 --------------------------------------------------------------------------------
 ! R1    R(1,6)                  1.5137                                         !
 ! R2    R(1,119)                1.1013                                         !
 ! R3    R(1,120)                1.0983                                         !
 ! R4    R(1,121)                1.1004                                         !
 ! R5    R(2,8)                  1.1022                                         !
 ! R6    R(3,14)                 2.0552                                         !
 ! R7    R(3,123)                2.1022                                         !
 ! R8    R(3,127)                0.9797                                         !
 ! R9    R(4,11)                 1.0994                                         !
 ! R10   R(5,14)                 2.0806                                         !
 ! R11   R(5,57)                 0.9766                                         !
 ! R12   R(6,16)                 1.4762                                         !
 ! R13   R(6,117)                1.1079                                         !
 ! R14   R(6,118)                1.0954                                         !
 ! R15   R(7,8)                  1.1027                                         !
 ! R16   R(8,10)                 1.1                                            !
 ! R17   R(8,18)                 1.5287                                         !
 ! R18   R(9,11)                 1.1012                                         !
 ! R19   R(11,12)                1.1035                                         !
 ! R20   R(11,22)                1.534                                          !
 ! R21   R(13,17)                1.1026                                         !
 ! R22   R(14,23)                2.3049                                         !
 ! R23   R(14,31)                1.8287                                         !
 ! R24   R(14,38)                2.0569                                         !
 ! R25   R(15,21)                1.1018                                         !
 ! R26   R(16,17)                1.4751                                         !
 ! R27   R(16,29)                1.4806                                         !
 ! R28   R(17,24)                1.1035                                         !
 ! R29   R(17,37)                1.4993                                         !
 ! R30   R(18,21)                1.5344                                         !
 ! R31   R(18,23)                1.9088                                         !
 ! R32   R(18,32)                1.5321                                         !
 ! R33   R(19,21)                1.1032                                         !
 ! R34   R(20,25)                1.0971                                         !
 ! R35   R(21,40)                1.1007                                         !
 ! R36   R(22,23)                1.9043                                         !
 ! R37   R(22,25)                1.5278                                         !
 ! R38   R(22,34)                1.5297                                         !
 ! R39   R(23,44)                1.8796                                         !
 ! R40   R(25,28)                1.1031                                         !
 ! R41   R(25,42)                1.1006                                         !
 ! R42   R(26,29)                1.0968                                         !
 ! R43   R(27,39)                1.0997                                         !
 ! R44   R(29,39)                1.5215                                         !
 ! R45   R(29,41)                1.0998                                         !
 ! R46   R(30,32)                1.1031                                         !
 ! R47   R(31,58)                1.165                                          !
 ! R48   R(32,35)                1.0947                                         !
 ! R49   R(32,46)                1.1004                                         !
 ! R50   R(33,34)                1.0944                                         !
 ! R51   R(34,36)                1.1026                                         !
 ! R52   R(34,49)                1.1012                                         !
 ! R53   R(37,38)                1.3471                                         !
 ! R54   R(37,48)                1.39                                           !
 ! R55   R(38,47)                1.3509                                         !
 ! R56   R(39,43)                1.1005                                         !
 ! R57   R(39,45)                1.1004                                         !
 ! R58   R(44,47)                1.4995                                         !
 ! R59   R(44,51)                1.1023                                         !
 ! R60   R(44,52)                1.0985                                         !
 ! R61   R(47,53)                1.3926                                         !
 ! R62   R(48,50)                1.0906                                         !
 ! R63   R(48,54)                1.3931                                         !
 ! R64   R(53,54)                1.3925                                         !
 ! R65   R(53,55)                1.0905                                         !
 ! R66   R(54,56)                1.0914                                         !
 ! R67   R(57,128)               1.8952                                         !
 ! R68   R(59,64)                1.5138                                         !
 ! R69   R(59,124)               1.1014                                         !
 ! R70   R(59,125)               1.099                                          !
 ! R71   R(59,126)               1.1006                                         !
 ! R72   R(60,66)                1.0995                                         !
 ! R73   R(61,72)                2.0635                                         !
 ! R74   R(61,127)               1.9002                                         !
 ! R75   R(61,128)               0.9732                                         !
 ! R76   R(62,69)                1.0999                                         !
 ! R77   R(63,72)                2.0869                                         !
 ! R78   R(63,115)               0.9834                                         !
 ! R79   R(64,74)                1.4786                                         !
 ! R80   R(64,122)               1.1078                                         !
 ! R81   R(64,123)               1.0991                                         !
 ! R82   R(65,66)                1.1029                                         !
 ! R83   R(66,68)                1.0998                                         !
 ! R84   R(66,76)                1.5294                                         !
 ! R85   R(67,69)                1.102                                          !
 ! R86   R(69,70)                1.1033                                         !
 ! R87   R(69,80)                1.5337                                         !
 ! R88   R(71,75)                1.1039                                         !
 ! R89   R(72,81)                2.3087                                         !
 ! R90   R(72,89)                1.8274                                         !
 ! R91   R(72,96)                2.0627                                         !
 ! R92   R(73,79)                1.0989                                         !
 ! R93   R(74,75)                1.4752                                         !
 ! R94   R(74,87)                1.4815                                         !
 ! R95   R(75,82)                1.1031                                         !
 ! R96   R(75,95)                1.4983                                         !
 ! R97   R(76,79)                1.5334                                         !
 ! R98   R(76,81)                1.9077                                         !
 ! R99   R(76,90)                1.5321                                         !
 ! R100  R(77,79)                1.1031                                         !
 ! R101  R(78,83)                1.097                                          !
 ! R102  R(79,98)                1.1006                                         !
 ! R103  R(80,81)                1.9061                                         !
 ! R104  R(80,83)                1.528                                          !
 ! R105  R(80,92)                1.5298                                         !
 ! R106  R(81,102)               1.8797                                         !
 ! R107  R(83,86)                1.1031                                         !
 ! R108  R(83,100)               1.1005                                         !
 ! R109  R(84,87)                1.0965                                         !
 ! R110  R(85,97)                1.0996                                         !
 ! R111  R(87,97)                1.5215                                         !
 ! R112  R(87,99)                1.0999                                         !
 ! R113  R(88,90)                1.1031                                         !
 ! R114  R(89,116)               1.1656                                         !
 ! R115  R(90,93)                1.0947                                         !
 ! R116  R(90,104)               1.1004                                         !
 ! R117  R(91,92)                1.0944                                         !
 ! R118  R(92,94)                1.1027                                         !
 ! R119  R(92,107)               1.1012                                         !
 ! R120  R(95,96)                1.3462                                         !
 ! R121  R(95,106)               1.3906                                         !
 ! R122  R(96,105)               1.3496                                         !
 ! R123  R(97,101)               1.1005                                         !
 ! R124  R(97,103)               1.1004                                         !
 ! R125  R(102,105)              1.499                                          !
 ! R126  R(102,109)              1.1024                                         !
 ! R127  R(102,110)              1.0985                                         !
 ! R128  R(105,111)              1.393                                          !
 ! R129  R(106,108)              1.0905                                         !
 ! R130  R(106,112)              1.3927                                         !
 ! R131  R(111,112)              1.3921                                         !
 ! R132  R(111,113)              1.0904                                         !
 ! R133  R(112,114)              1.0915                                         !
 ! R134  R(127,128)              1.8779                                         !
 ! A1    A(6,1,119)            113.0083                                         !
 ! A2    A(6,1,120)            108.5112                                         !
 ! A3    A(6,1,121)            110.0423                                         !
 ! A4    A(119,1,120)          108.4491                                         !
 ! A5    A(119,1,121)          109.2682                                         !
 ! A6    A(120,1,121)          107.392                                          !
 ! A7    A(14,3,123)           160.6698                                         !
 ! A8    A(14,3,127)           106.7033                                         !
 ! A9    A(123,3,127)           83.0976                                         !
 ! A10   A(14,5,57)            105.493                                          !
 ! A11   A(1,6,16)             113.2688                                         !
 ! A12   A(1,6,117)            110.8699                                         !
 ! A13   A(1,6,118)            109.2063                                         !
 ! A14   A(16,6,117)           109.4095                                         !
 ! A15   A(16,6,118)           106.4442                                         !
 ! A16   A(117,6,118)          107.384                                          !
 ! A17   A(2,8,7)              107.9226                                         !
 ! A18   A(2,8,10)             108.134                                          !
 ! A19   A(2,8,18)             112.8345                                         !
 ! A20   A(7,8,10)             107.042                                          !
 ! A21   A(7,8,18)             108.6338                                         !
 ! A22   A(10,8,18)            112.0377                                         !
 ! A23   A(4,11,9)             107.0193                                         !
 ! A24   A(4,11,12)            107.9645                                         !
 ! A25   A(4,11,22)            111.7839                                         !
 ! A26   A(9,11,12)            109.8014                                         !
 ! A27   A(9,11,22)            111.3566                                         !
 ! A28   A(12,11,22)           108.8429                                         !
 ! A29   A(3,14,5)              84.8669                                         !
 ! A30   A(3,14,23)             99.766                                          !
 ! A31   A(3,14,31)             89.1352                                         !
 ! A32   A(5,14,23)             97.7954                                         !
 ! A33   A(5,14,38)             90.4891                                         !
 ! A34   A(23,14,31)            91.9877                                         !
 ! A35   A(23,14,38)            81.2275                                         !
 ! A36   A(31,14,38)            95.3907                                         !
 ! A37   A(6,16,17)            109.0939                                         !
 ! A38   A(6,16,29)            111.9735                                         !
 ! A39   A(17,16,29)           110.8953                                         !
 ! A40   A(13,17,16)           105.6029                                         !
 ! A41   A(13,17,24)           109.5652                                         !
 ! A42   A(13,17,37)           107.7665                                         !
 ! A43   A(16,17,24)           112.2081                                         !
 ! A44   A(16,17,37)           110.657                                          !
 ! A45   A(24,17,37)           110.8124                                         !
 ! A46   A(8,18,21)            109.1705                                         !
 ! A47   A(8,18,23)            108.5252                                         !
 ! A48   A(8,18,32)            110.1822                                         !
 ! A49   A(21,18,23)           107.7828                                         !
 ! A50   A(21,18,32)           107.0169                                         !
 ! A51   A(23,18,32)           114.0462                                         !
 ! A52   A(15,21,18)           111.4725                                         !
 ! A53   A(15,21,19)           109.5063                                         !
 ! A54   A(15,21,40)           109.3234                                         !
 ! A55   A(18,21,19)           107.8157                                         !
 ! A56   A(18,21,40)           111.6307                                         !
 ! A57   A(19,21,40)           106.9625                                         !
 ! A58   A(11,22,23)           105.1551                                         !
 ! A59   A(11,22,25)           110.3336                                         !
 ! A60   A(11,22,34)           108.808                                          !
 ! A61   A(23,22,25)           115.5572                                         !
 ! A62   A(23,22,34)           109.625                                          !
 ! A63   A(25,22,34)           107.2291                                         !
 ! A64   A(14,23,18)           118.7002                                         !
 ! A65   A(14,23,22)           119.5416                                         !
 ! A66   A(14,23,44)            95.696                                          !
 ! A67   A(18,23,22)           110.0208                                         !
 ! A68   A(18,23,44)           101.889                                          !
 ! A69   A(22,23,44)           107.4283                                         !
 ! A70   A(20,25,22)           112.8177                                         !
 ! A71   A(20,25,28)           107.1165                                         !
 ! A72   A(20,25,42)           108.7803                                         !
 ! A73   A(22,25,28)           108.1168                                         !
 ! A74   A(22,25,42)           112.4547                                         !
 ! A75   A(28,25,42)           107.268                                          !
 ! A76   A(16,29,26)           107.0919                                         !
 ! A77   A(16,29,39)           116.4798                                         !
 ! A78   A(16,29,41)           107.1706                                         !
 ! A79   A(26,29,39)           109.7491                                         !
 ! A80   A(26,29,41)           106.1533                                         !
 ! A81   A(39,29,41)           109.6767                                         !
 ! A82   A(18,32,30)           107.557                                          !
 ! A83   A(18,32,35)           114.2321                                         !
 ! A84   A(18,32,46)           112.2865                                         !
 ! A85   A(30,32,35)           107.2832                                         !
 ! A86   A(30,32,46)           106.5379                                         !
 ! A87   A(35,32,46)           108.5434                                         !
 ! A88   A(22,34,33)           113.0384                                         !
 ! A89   A(22,34,36)           107.9684                                         !
 ! A90   A(22,34,49)           112.4228                                         !
 ! A91   A(33,34,36)           107.1486                                         !
 ! A92   A(33,34,49)           108.9683                                         !
 ! A93   A(36,34,49)           106.9771                                         !
 ! A94   A(17,37,38)           114.2843                                         !
 ! A95   A(17,37,48)           124.8594                                         !
 ! A96   A(38,37,48)           120.8482                                         !
 ! A97   A(14,38,37)           116.6857                                         !
 ! A98   A(14,38,47)           122.1737                                         !
 ! A99   A(37,38,47)           121.1231                                         !
 ! A100  A(27,39,29)           112.3865                                         !
 ! A101  A(27,39,43)           108.1313                                         !
 ! A102  A(27,39,45)           107.4165                                         !
 ! A103  A(29,39,43)           112.8026                                         !
 ! A104  A(29,39,45)           108.7066                                         !
 ! A105  A(43,39,45)           107.1327                                         !
 ! A106  A(23,44,47)           108.349                                          !
 ! A107  A(23,44,51)           105.1107                                         !
 ! A108  A(23,44,52)           115.0604                                         !
 ! A109  A(47,44,51)           108.504                                          !
 ! A110  A(47,44,52)           111.576                                          !
 ! A111  A(51,44,52)           107.8799                                         !
 ! A112  A(38,47,44)           115.4697                                         !
 ! A113  A(38,47,53)           120.3353                                         !
 ! A114  A(44,47,53)           124.1935                                         !
 ! A115  A(37,48,50)           119.7611                                         !
 ! A116  A(37,48,54)           118.971                                          !
 ! A117  A(50,48,54)           121.2678                                         !
 ! A118  A(47,53,54)           119.2767                                         !
 ! A119  A(47,53,55)           119.6577                                         !
 ! A120  A(54,53,55)           121.0653                                         !
 ! A121  A(48,54,53)           119.4435                                         !
 ! A122  A(48,54,56)           120.3354                                         !
 ! A123  A(53,54,56)           120.2202                                         !
 ! A124  A(5,57,128)            86.2148                                         !
 ! A125  A(64,59,124)          113.3555                                         !
 ! A126  A(64,59,125)          108.3574                                         !
 ! A127  A(64,59,126)          109.5049                                         !
 ! A128  A(124,59,125)         108.0068                                         !
 ! A129  A(124,59,126)         109.8682                                         !
 ! A130  A(125,59,126)         107.5652                                         !
 ! A131  A(72,61,127)          108.9622                                         !
 ! A132  A(72,61,128)          102.01                                           !
 ! A133  A(72,63,115)          105.0818                                         !
 ! A134  A(59,64,74)           113.0814                                         !
 ! A135  A(59,64,122)          111.1251                                         !
 ! A136  A(59,64,123)          108.0358                                         !
 ! A137  A(74,64,122)          109.213                                          !
 ! A138  A(74,64,123)          107.3927                                         !
 ! A139  A(122,64,123)         107.7831                                         !
 ! A140  A(60,66,65)           107.6209                                         !
 ! A141  A(60,66,68)           108.071                                          !
 ! A142  A(60,66,76)           112.9503                                         !
 ! A143  A(65,66,68)           107.0758                                         !
 ! A144  A(65,66,76)           108.709                                          !
 ! A145  A(68,66,76)           112.1564                                         !
 ! A146  A(62,69,67)           107.1651                                         !
 ! A147  A(62,69,70)           107.9605                                         !
 ! A148  A(62,69,80)           111.8477                                         !
 ! A149  A(67,69,70)           109.651                                          !
 ! A150  A(67,69,80)           111.1108                                         !
 ! A151  A(70,69,80)           109.0323                                         !
 ! A152  A(61,72,63)            84.3                                            !
 ! A153  A(61,72,81)           102.3174                                         !
 ! A154  A(61,72,89)            89.1369                                         !
 ! A155  A(63,72,81)            96.4547                                         !
 ! A156  A(63,72,96)            90.3085                                         !
 ! A157  A(81,72,89)            91.7589                                         !
 ! A158  A(81,72,96)            81.3842                                         !
 ! A159  A(89,72,96)            95.8172                                         !
 ! A160  A(64,74,75)           109.2813                                         !
 ! A161  A(64,74,87)           111.9071                                         !
 ! A162  A(75,74,87)           110.611                                          !
 ! A163  A(71,75,74)           105.4743                                         !
 ! A164  A(71,75,82)           110.2862                                         !
 ! A165  A(71,75,95)           106.5841                                         !
 ! A166  A(74,75,82)           112.3548                                         !
 ! A167  A(74,75,95)           110.73                                           !
 ! A168  A(82,75,95)           111.1066                                         !
 ! A169  A(66,76,79)           109.2107                                         !
 ! A170  A(66,76,81)           108.9718                                         !
 ! A171  A(66,76,90)           110.0029                                         !
 ! A172  A(79,76,81)           107.3198                                         !
 ! A173  A(79,76,90)           107.0837                                         !
 ! A174  A(81,76,90)           114.1183                                         !
 ! A175  A(73,79,76)           111.5238                                         !
 ! A176  A(73,79,77)           109.2658                                         !
 ! A177  A(73,79,98)           109.567                                          !
 ! A178  A(76,79,77)           107.7915                                         !
 ! A179  A(76,79,98)           111.6944                                         !
 ! A180  A(77,79,98)           106.8476                                         !
 ! A181  A(69,80,81)           104.9545                                         !
 ! A182  A(69,80,83)           110.3042                                         !
 ! A183  A(69,80,92)           108.9001                                         !
 ! A184  A(81,80,83)           115.6275                                         !
 ! A185  A(81,80,92)           109.9003                                         !
 ! A186  A(83,80,92)           107.0347                                         !
 ! A187  A(72,81,76)           119.0372                                         !
 ! A188  A(72,81,80)           119.5351                                         !
 ! A189  A(72,81,102)           95.6834                                         !
 ! A190  A(76,81,80)           109.9646                                         !
 ! A191  A(76,81,102)          101.9213                                         !
 ! A192  A(80,81,102)          107.0067                                         !
 ! A193  A(78,83,80)           112.9674                                         !
 ! A194  A(78,83,86)           107.1355                                         !
 ! A195  A(78,83,100)          108.7766                                         !
 ! A196  A(80,83,86)           108.0736                                         !
 ! A197  A(80,83,100)          112.3654                                         !
 ! A198  A(86,83,100)          107.2312                                         !
 ! A199  A(74,87,84)           107.1915                                         !
 ! A200  A(74,87,97)           116.4948                                         !
 ! A201  A(74,87,99)           107.1621                                         !
 ! A202  A(84,87,97)           109.661                                          !
 ! A203  A(84,87,99)           106.1411                                         !
 ! A204  A(97,87,99)           109.6716                                         !
 ! A205  A(76,90,88)           107.5727                                         !
 ! A206  A(76,90,93)           114.2342                                         !
 ! A207  A(76,90,104)          112.2724                                         !
 ! A208  A(88,90,93)           107.2802                                         !
 ! A209  A(88,90,104)          106.5315                                         !
 ! A210  A(93,90,104)          108.549                                          !
 ! A211  A(80,92,91)           113.1928                                         !
 ! A212  A(80,92,94)           107.9725                                         !
 ! A213  A(80,92,107)          112.294                                          !
 ! A214  A(91,92,94)           107.113                                          !
 ! A215  A(91,92,107)          108.9971                                         !
 ! A216  A(94,92,107)          106.9477                                         !
 ! A217  A(75,95,96)           114.3182                                         !
 ! A218  A(75,95,106)          124.8787                                         !
 ! A219  A(96,95,106)          120.7812                                         !
 ! A220  A(72,96,95)           116.589                                          !
 ! A221  A(72,96,105)          122.1459                                         !
 ! A222  A(95,96,105)          121.2518                                         !
 ! A223  A(85,97,87)           112.3553                                         !
 ! A224  A(85,97,101)          108.1322                                         !
 ! A225  A(85,97,103)          107.4283                                         !
 ! A226  A(87,97,101)          112.8455                                         !
 ! A227  A(87,97,103)          108.6715                                         !
 ! A228  A(101,97,103)         107.1442                                         !
 ! A229  A(81,102,105)         108.7255                                         !
 ! A230  A(81,102,109)         104.9664                                         !
 ! A231  A(81,102,110)         115.0308                                         !
 ! A232  A(105,102,109)        108.2503                                         !
 ! A233  A(105,102,110)        111.6549                                         !
 ! A234  A(109,102,110)        107.8104                                         !
 ! A235  A(96,105,102)         115.5132                                         !
 ! A236  A(96,105,111)         120.3103                                         !
 ! A237  A(102,105,111)        124.1765                                         !
 ! A238  A(95,106,108)         119.7908                                         !
 ! A239  A(95,106,112)         118.9167                                         !
 ! A240  A(108,106,112)        121.2925                                         !
 ! A241  A(105,111,112)        119.1949                                         !
 ! A242  A(105,111,113)        119.7188                                         !
 ! A243  A(112,111,113)        121.0863                                         !
 ! A244  A(106,112,111)        119.54                                           !
 ! A245  A(106,112,114)        120.2911                                         !
 ! A246  A(111,112,114)        120.1676                                         !
 ! A247  A(3,123,64)           141.6517                                         !
 ! A248  A(3,127,128)          136.3999                                         !
 ! A249  A(57,128,61)          140.824                                          !
 ! A250  A(57,128,127)          80.8854                                         !
 ! A251  L(3,14,38,5,-1)       175.356                                          !
 ! A252  L(5,14,31,3,-1)       174.0021                                         !
 ! A253  L(14,31,58,1,-1)      173.9519                                         !
 ! A254  L(61,72,96,63,-1)     174.6085                                         !
 ! A255  L(63,72,89,61,-1)     173.4369                                         !
 ! A256  L(72,89,116,1,-1)     175.2814                                         !
 ! A257  L(3,127,61,1,-1)      199.0908                                         !
 ! A258  L(3,14,38,5,-2)       180.3961                                         !
 ! A259  L(5,14,31,3,-2)       171.0824                                         !
 ! A260  L(14,31,58,1,-2)      180.3556                                         !
 ! A261  L(61,72,96,63,-2)     183.1621                                         !
 ! A262  L(63,72,89,61,-2)     173.0032                                         !
 ! A263  L(72,89,116,1,-2)     175.2231                                         !
 ! A264  L(3,127,61,1,-2)      188.4454                                         !
 ! D1    D(119,1,6,16)         -73.8223                                         !
 ! D2    D(119,1,6,117)         49.6197                                         !
 ! D3    D(119,1,6,118)        167.7459                                         !
 ! D4    D(120,1,6,16)         165.8631                                         !
 ! D5    D(120,1,6,117)        -70.6949                                         !
 ! D6    D(120,1,6,118)         47.4314                                         !
 ! D7    D(121,1,6,16)          48.6258                                         !
 ! D8    D(121,1,6,117)        172.0678                                         !
 ! D9    D(121,1,6,118)        -69.806                                          !
 ! D10   D(123,3,14,5)         -73.694                                          !
 ! D11   D(123,3,14,23)         23.3553                                         !
 ! D12   D(123,3,14,31)        115.2236                                         !
 ! D13   D(127,3,14,5)          44.7553                                         !
 ! D14   D(127,3,14,23)        141.8046                                         !
 ! D15   D(127,3,14,31)       -126.3271                                         !
 ! D16   D(123,3,38,37)       -124.8538                                         !
 ! D17   D(123,3,38,47)         51.4917                                         !
 ! D18   D(127,3,38,37)        -13.1575                                         !
 ! D19   D(127,3,38,47)        163.188                                          !
 ! D20   D(14,3,61,72)        -121.3382                                         !
 ! D21   D(123,3,61,72)         39.6051                                         !
 ! D22   D(14,3,123,64)        161.8601                                         !
 ! D23   D(127,3,123,64)        39.8861                                         !
 ! D24   D(14,3,127,128)       -50.6821                                         !
 ! D25   D(123,3,127,128)      112.2705                                         !
 ! D26   D(57,5,14,3)           37.4699                                         !
 ! D27   D(57,5,14,23)         -61.7136                                         !
 ! D28   D(57,5,14,38)        -142.9261                                         !
 ! D29   D(14,5,57,128)       -100.1135                                         !
 ! D30   D(1,6,16,17)          178.801                                          !
 ! D31   D(1,6,16,29)           55.6626                                         !
 ! D32   D(117,6,16,17)         54.5602                                         !
 ! D33   D(117,6,16,29)        -68.5782                                         !
 ! D34   D(118,6,16,17)        -61.1795                                         !
 ! D35   D(118,6,16,29)        175.6821                                         !
 ! D36   D(2,8,18,21)           66.5764                                         !
 ! D37   D(2,8,18,23)          -50.6498                                         !
 ! D38   D(2,8,18,32)         -176.1722                                         !
 ! D39   D(7,8,18,21)          -53.0507                                         !
 ! D40   D(7,8,18,23)         -170.2769                                         !
 ! D41   D(7,8,18,32)           64.2006                                         !
 ! D42   D(10,8,18,21)        -171.0952                                         !
 ! D43   D(10,8,18,23)          71.6786                                         !
 ! D44   D(10,8,18,32)         -53.8439                                         !
 ! D45   D(4,11,22,23)         -66.3762                                         !
 ! D46   D(4,11,22,25)          58.8658                                         !
 ! D47   D(4,11,22,34)         176.247                                          !
 ! D48   D(9,11,22,23)          53.2746                                         !
 ! D49   D(9,11,22,25)         178.5166                                         !
 ! D50   D(9,11,22,34)         -64.1022                                         !
 ! D51   D(12,11,22,23)        174.458                                          !
 ! D52   D(12,11,22,25)        -60.3                                            !
 ! D53   D(12,11,22,34)         57.0812                                         !
 ! D54   D(3,14,23,18)         -98.902                                          !
 ! D55   D(3,14,23,22)          40.4667                                         !
 ! D56   D(3,14,23,44)         154.2014                                         !
 ! D57   D(5,14,23,18)         -12.8051                                         !
 ! D58   D(5,14,23,22)         126.5635                                         !
 ! D59   D(5,14,23,44)        -119.7017                                         !
 ! D60   D(31,14,23,18)        171.6338                                         !
 ! D61   D(31,14,23,22)        -48.9976                                         !
 ! D62   D(31,14,23,44)         64.7372                                         !
 ! D63   D(38,14,23,18)         76.484                                          !
 ! D64   D(38,14,23,22)       -144.1474                                         !
 ! D65   D(38,14,23,44)        -30.4126                                         !
 ! D66   D(5,14,38,37)         -58.3798                                         !
 ! D67   D(5,14,38,47)         120.1144                                         !
 ! D68   D(23,14,38,37)       -156.1922                                         !
 ! D69   D(23,14,38,47)         22.302                                          !
 ! D70   D(31,14,38,37)        112.6223                                         !
 ! D71   D(31,14,38,47)        -68.8835                                         !
 ! D72   D(6,16,17,13)          54.4111                                         !
 ! D73   D(6,16,17,24)         -64.9007                                         !
 ! D74   D(6,16,17,37)         170.7619                                         !
 ! D75   D(29,16,17,13)        178.1901                                         !
 ! D76   D(29,16,17,24)         58.8783                                         !
 ! D77   D(29,16,17,37)        -65.4592                                         !
 ! D78   D(6,16,29,26)         -65.3577                                         !
 ! D79   D(6,16,29,39)          57.8803                                         !
 ! D80   D(6,16,29,41)        -178.914                                          !
 ! D81   D(17,16,29,26)        172.5279                                         !
 ! D82   D(17,16,29,39)        -64.2341                                         !
 ! D83   D(17,16,29,41)         58.9715                                         !
 ! D84   D(13,17,37,38)         76.3909                                         !
 ! D85   D(13,17,37,48)       -102.5741                                         !
 ! D86   D(16,17,37,38)        -38.6109                                         !
 ! D87   D(16,17,37,48)        142.4242                                         !
 ! D88   D(24,17,37,38)       -163.7418                                         !
 ! D89   D(24,17,37,48)         17.2933                                         !
 ! D90   D(8,18,21,15)         -66.1689                                         !
 ! D91   D(8,18,21,19)          54.0496                                         !
 ! D92   D(8,18,21,40)         171.2493                                         !
 ! D93   D(23,18,21,15)         51.5257                                         !
 ! D94   D(23,18,21,19)        171.7442                                         !
 ! D95   D(23,18,21,40)        -71.056                                          !
 ! D96   D(32,18,21,15)        174.5963                                         !
 ! D97   D(32,18,21,19)        -65.1851                                         !
 ! D98   D(32,18,21,40)         52.0146                                         !
 ! D99   D(8,18,23,14)          84.0929                                         !
 ! D100  D(8,18,23,22)         -58.8241                                         !
 ! D101  D(8,18,23,44)        -172.5572                                         !
 ! D102  D(21,18,23,14)        -34.0177                                         !
 ! D103  D(21,18,23,22)       -176.9347                                         !
 ! D104  D(21,18,23,44)         69.3322                                         !
 ! D105  D(32,18,23,14)       -152.6805                                         !
 ! D106  D(32,18,23,22)         64.4026                                         !
 ! D107  D(32,18,23,44)        -49.3306                                         !
 ! D108  D(8,18,32,30)         -61.3065                                         !
 ! D109  D(8,18,32,35)          57.6488                                         !
 ! D110  D(8,18,32,46)        -178.2001                                         !
 ! D111  D(21,18,32,30)         57.273                                          !
 ! D112  D(21,18,32,35)        176.2283                                         !
 ! D113  D(21,18,32,46)        -59.6206                                         !
 ! D114  D(23,18,32,30)        176.371                                          !
 ! D115  D(23,18,32,35)        -64.6738                                         !
 ! D116  D(23,18,32,46)         59.4774                                         !
 ! D117  D(11,22,23,14)        -52.5851                                         !
 ! D118  D(11,22,23,18)         89.9752                                         !
 ! D119  D(11,22,23,44)       -159.8915                                         !
 ! D120  D(25,22,23,14)       -174.4942                                         !
 ! D121  D(25,22,23,18)        -31.9339                                         !
 ! D122  D(25,22,23,44)         78.1994                                         !
 ! D123  D(34,22,23,14)         64.2352                                         !
 ! D124  D(34,22,23,18)       -153.2045                                         !
 ! D125  D(34,22,23,44)        -43.0712                                         !
 ! D126  D(11,22,25,20)        -55.459                                          !
 ! D127  D(11,22,25,28)         62.8098                                         !
 ! D128  D(11,22,25,42)       -178.9501                                         !
 ! D129  D(23,22,25,20)         63.6357                                         !
 ! D130  D(23,22,25,28)       -178.0954                                         !
 ! D131  D(23,22,25,42)        -59.8554                                         !
 ! D132  D(34,22,25,20)       -173.8116                                         !
 ! D133  D(34,22,25,28)        -55.5428                                         !
 ! D134  D(34,22,25,42)         62.6973                                         !
 ! D135  D(11,22,34,33)         57.7409                                         !
 ! D136  D(11,22,34,36)        -60.6023                                         !
 ! D137  D(11,22,34,49)       -178.3701                                         !
 ! D138  D(23,22,34,33)        -56.7568                                         !
 ! D139  D(23,22,34,36)       -175.1                                            !
 ! D140  D(23,22,34,49)         67.1322                                         !
 ! D141  D(25,22,34,33)        177.0782                                         !
 ! D142  D(25,22,34,36)         58.735                                          !
 ! D143  D(25,22,34,49)        -59.0328                                         !
 ! D144  D(14,23,44,47)         40.9648                                         !
 ! D145  D(14,23,44,51)        -74.8779                                         !
 ! D146  D(14,23,44,52)        166.6111                                         !
 ! D147  D(18,23,44,47)        -79.9784                                         !
 ! D148  D(18,23,44,51)        164.1788                                         !
 ! D149  D(18,23,44,52)         45.6679                                         !
 ! D150  D(22,23,44,47)        164.3768                                         !
 ! D151  D(22,23,44,51)         48.534                                          !
 ! D152  D(22,23,44,52)        -69.9769                                         !
 ! D153  D(16,29,39,27)        -61.3788                                         !
 ! D154  D(16,29,39,43)         61.1865                                         !
 ! D155  D(16,29,39,45)        179.855                                          !
 ! D156  D(26,29,39,27)         60.4722                                         !
 ! D157  D(26,29,39,43)       -176.9625                                         !
 ! D158  D(26,29,39,45)        -58.294                                          !
 ! D159  D(41,29,39,27)        176.7235                                         !
 ! D160  D(41,29,39,43)        -60.7112                                         !
 ! D161  D(41,29,39,45)         57.9573                                         !
 ! D162  D(17,37,38,14)         -0.6158                                         !
 ! D163  D(17,37,38,47)       -179.127                                          !
 ! D164  D(48,37,38,14)        178.3949                                         !
 ! D165  D(48,37,38,47)         -0.1163                                         !
 ! D166  D(17,37,48,50)         -1.4893                                         !
 ! D167  D(17,37,48,54)        178.5849                                         !
 ! D168  D(38,37,48,50)        179.6096                                         !
 ! D169  D(38,37,48,54)         -0.3161                                         !
 ! D170  D(14,38,47,44)          1.4784                                         !
 ! D171  D(14,38,47,53)       -178.0884                                         !
 ! D172  D(37,38,47,44)        179.9067                                         !
 ! D173  D(37,38,47,53)          0.34                                           !
 ! D174  D(23,44,47,38)        -31.4317                                         !
 ! D175  D(23,44,47,53)        148.1162                                         !
 ! D176  D(51,44,47,38)         82.1853                                         !
 ! D177  D(51,44,47,53)        -98.2668                                         !
 ! D178  D(52,44,47,38)       -159.0968                                         !
 ! D179  D(52,44,47,53)         20.4512                                         !
 ! D180  D(38,47,53,54)         -0.126                                          !
 ! D181  D(38,47,53,55)        179.6752                                         !
 ! D182  D(44,47,53,54)       -179.6531                                         !
 ! D183  D(44,47,53,55)          0.1481                                         !
 ! D184  D(37,48,54,53)          0.5181                                         !
 ! D185  D(37,48,54,56)       -179.8152                                         !
 ! D186  D(50,48,54,53)       -179.4065                                         !
 ! D187  D(50,48,54,56)          0.2602                                         !
 ! D188  D(47,53,54,48)         -0.3029                                         !
 ! D189  D(47,53,54,56)       -179.97                                           !
 ! D190  D(55,53,54,48)        179.8988                                         !
 ! D191  D(55,53,54,56)          0.2318                                         !
 ! D192  D(5,57,128,61)        149.6323                                         !
 ! D193  D(5,57,128,127)        94.7549                                         !
 ! D194  D(124,59,64,74)       -70.3016                                         !
 ! D195  D(124,59,64,122)       52.938                                          !
 ! D196  D(124,59,64,123)      170.9816                                         !
 ! D197  D(125,59,64,74)       169.8264                                         !
 ! D198  D(125,59,64,122)      -66.934                                          !
 ! D199  D(125,59,64,123)       51.1096                                         !
 ! D200  D(126,59,64,74)        52.7698                                         !
 ! D201  D(126,59,64,122)      176.0094                                         !
 ! D202  D(126,59,64,123)      -65.947                                          !
 ! D203  D(127,61,72,63)        33.6281                                         !
 ! D204  D(127,61,72,81)       129.0129                                         !
 ! D205  D(127,61,72,89)      -139.3751                                         !
 ! D206  D(128,61,72,63)       -43.1703                                         !
 ! D207  D(128,61,72,81)        52.2144                                         !
 ! D208  D(128,61,72,89)       143.8264                                         !
 ! D209  D(127,61,96,95)       -26.6029                                         !
 ! D210  D(127,61,96,105)      150.2419                                         !
 ! D211  D(128,61,96,95)      -102.7355                                         !
 ! D212  D(128,61,96,105)       74.1093                                         !
 ! D213  D(72,61,128,57)        50.2989                                         !
 ! D214  D(115,63,72,61)       -34.8977                                         !
 ! D215  D(115,63,72,81)      -136.6958                                         !
 ! D216  D(115,63,72,96)       141.9402                                         !
 ! D217  D(59,64,74,75)        179.2917                                         !
 ! D218  D(59,64,74,87)         56.4277                                         !
 ! D219  D(122,64,74,75)        55.0015                                         !
 ! D220  D(122,64,74,87)       -67.8625                                         !
 ! D221  D(123,64,74,75)       -61.6194                                         !
 ! D222  D(123,64,74,87)       175.5165                                         !
 ! D223  D(59,64,123,3)         13.5623                                         !
 ! D224  D(74,64,123,3)       -108.7169                                         !
 ! D225  D(122,64,123,3)       133.7268                                         !
 ! D226  D(60,66,76,79)         66.7411                                         !
 ! D227  D(60,66,76,81)        -50.2053                                         !
 ! D228  D(60,66,76,90)       -176.0067                                         !
 ! D229  D(65,66,76,79)        -52.6313                                         !
 ! D230  D(65,66,76,81)       -169.5777                                         !
 ! D231  D(65,66,76,90)         64.6209                                         !
 ! D232  D(68,66,76,79)       -170.837                                          !
 ! D233  D(68,66,76,81)         72.2166                                         !
 ! D234  D(68,66,76,90)        -53.5849                                         !
 ! D235  D(62,69,80,81)        -64.6022                                         !
 ! D236  D(62,69,80,83)         60.5791                                         !
 ! D237  D(62,69,80,92)        177.7624                                         !
 ! D238  D(67,69,80,81)         55.1094                                         !
 ! D239  D(67,69,80,83)       -179.7093                                         !
 ! D240  D(67,69,80,92)        -62.5259                                         !
 ! D241  D(70,69,80,81)        176.0742                                         !
 ! D242  D(70,69,80,83)        -58.7445                                         !
 ! D243  D(70,69,80,92)         58.4389                                         !
 ! D244  D(61,72,81,76)        -97.5983                                         !
 ! D245  D(61,72,81,80)         42.1662                                         !
 ! D246  D(61,72,81,102)       155.3832                                         !
 ! D247  D(63,72,81,76)        -12.0492                                         !
 ! D248  D(63,72,81,80)        127.7153                                         !
 ! D249  D(63,72,81,102)      -119.0677                                         !
 ! D250  D(89,72,81,76)        172.9014                                         !
 ! D251  D(89,72,81,80)        -47.3342                                         !
 ! D252  D(89,72,81,102)        65.8828                                         !
 ! D253  D(96,72,81,76)         77.2827                                         !
 ! D254  D(96,72,81,80)       -142.9529                                         !
 ! D255  D(96,72,81,102)       -29.7359                                         !
 ! D256  D(63,72,96,95)        -60.75                                           !
 ! D257  D(63,72,96,105)       117.9381                                         !
 ! D258  D(81,72,96,95)       -157.2317                                         !
 ! D259  D(81,72,96,105)        21.4563                                         !
 ! D260  D(89,72,96,95)        111.8648                                         !
 ! D261  D(89,72,96,105)       -69.4471                                         !
 ! D262  D(64,74,75,71)         55.8322                                         !
 ! D263  D(64,74,75,82)        -64.3555                                         !
 ! D264  D(64,74,75,95)        170.7573                                         !
 ! D265  D(87,74,75,71)        179.4654                                         !
 ! D266  D(87,74,75,82)         59.2778                                         !
 ! D267  D(87,74,75,95)        -65.6095                                         !
 ! D268  D(64,74,87,84)        -65.6125                                         !
 ! D269  D(64,74,87,97)         57.5996                                         !
 ! D270  D(64,74,87,99)       -179.1978                                         !
 ! D271  D(75,74,87,84)        172.2814                                         !
 ! D272  D(75,74,87,97)        -64.5065                                         !
 ! D273  D(75,74,87,99)         58.6961                                         !
 ! D274  D(71,75,95,96)         75.583                                          !
 ! D275  D(71,75,95,106)      -102.7212                                         !
 ! D276  D(74,75,95,96)        -38.645                                          !
 ! D277  D(74,75,95,106)       143.0508                                         !
 ! D278  D(82,75,95,96)       -164.2364                                         !
 ! D279  D(82,75,95,106)        17.4594                                         !
 ! D280  D(66,76,79,73)        -64.1685                                         !
 ! D281  D(66,76,79,77)         55.7693                                         !
 ! D282  D(66,76,79,98)        172.8505                                         !
 ! D283  D(81,76,79,73)         53.8194                                         !
 ! D284  D(81,76,79,77)        173.7573                                         !
 ! D285  D(81,76,79,98)        -69.1615                                         !
 ! D286  D(90,76,79,73)        176.7503                                         !
 ! D287  D(90,76,79,77)        -63.3118                                         !
 ! D288  D(90,76,79,98)         53.7694                                         !
 ! D289  D(66,76,81,72)         84.3717                                         !
 ! D290  D(66,76,81,80)        -58.9066                                         !
 ! D291  D(66,76,81,102)      -172.1563                                         !
 ! D292  D(79,76,81,72)        -33.7714                                         !
 ! D293  D(79,76,81,80)       -177.0497                                         !
 ! D294  D(79,76,81,102)        69.7006                                         !
 ! D295  D(90,76,81,72)       -152.2459                                         !
 ! D296  D(90,76,81,80)         64.4757                                         !
 ! D297  D(90,76,81,102)       -48.7739                                         !
 ! D298  D(66,76,90,88)        -60.7196                                         !
 ! D299  D(66,76,90,93)         58.244                                          !
 ! D300  D(66,76,90,104)      -177.6072                                         !
 ! D301  D(79,76,90,88)         57.8488                                         !
 ! D302  D(79,76,90,93)        176.8124                                         !
 ! D303  D(79,76,90,104)       -59.0388                                         !
 ! D304  D(81,76,90,88)        176.4577                                         !
 ! D305  D(81,76,90,93)        -64.5787                                         !
 ! D306  D(81,76,90,104)        59.5702                                         !
 ! D307  D(69,80,81,72)        -51.3778                                         !
 ! D308  D(69,80,81,76)         91.6914                                         !
 ! D309  D(69,80,81,102)      -158.3748                                         !
 ! D310  D(83,80,81,72)       -173.1462                                         !
 ! D311  D(83,80,81,76)        -30.077                                          !
 ! D312  D(83,80,81,102)        79.8568                                         !
 ! D313  D(92,80,81,72)         65.575                                          !
 ! D314  D(92,80,81,76)       -151.3558                                         !
 ! D315  D(92,80,81,102)       -41.422                                          !
 ! D316  D(69,80,83,78)        -56.1058                                         !
 ! D317  D(69,80,83,86)         62.2479                                         !
 ! D318  D(69,80,83,100)      -179.6382                                         !
 ! D319  D(81,80,83,78)         62.7534                                         !
 ! D320  D(81,80,83,86)       -178.8929                                         !
 ! D321  D(81,80,83,100)       -60.7789                                         !
 ! D322  D(92,80,83,78)       -174.4386                                         !
 ! D323  D(92,80,83,86)        -56.0849                                         !
 ! D324  D(92,80,83,100)        62.0291                                         !
 ! D325  D(69,80,92,91)         58.6491                                         !
 ! D326  D(69,80,92,94)        -59.7451                                         !
 ! D327  D(69,80,92,107)      -177.4043                                         !
 ! D328  D(81,80,92,91)        -55.8085                                         !
 ! D329  D(81,80,92,94)       -174.2027                                         !
 ! D330  D(81,80,92,107)        68.1381                                         !
 ! D331  D(83,80,92,91)        177.8919                                         !
 ! D332  D(83,80,92,94)         59.4978                                         !
 ! D333  D(83,80,92,107)       -58.1615                                         !
 ! D334  D(72,81,102,105)       40.4851                                         !
 ! D335  D(72,81,102,109)      -75.1665                                         !
 ! D336  D(72,81,102,110)      166.5227                                         !
 ! D337  D(76,81,102,105)      -80.8161                                         !
 ! D338  D(76,81,102,109)      163.5323                                         !
 ! D339  D(76,81,102,110)       45.2215                                         !
 ! D340  D(80,81,102,105)      163.7483                                         !
 ! D341  D(80,81,102,109)       48.0967                                         !
 ! D342  D(80,81,102,110)      -70.2141                                         !
 ! D343  D(74,87,97,85)        -61.6963                                         !
 ! D344  D(74,87,97,101)        60.8789                                         !
 ! D345  D(74,87,97,103)       179.5648                                         !
 ! D346  D(84,87,97,85)         60.2275                                         !
 ! D347  D(84,87,97,101)      -177.1973                                         !
 ! D348  D(84,87,97,103)       -58.5114                                         !
 ! D349  D(99,87,97,85)        176.4105                                         !
 ! D350  D(99,87,97,101)       -61.0143                                         !
 ! D351  D(99,87,97,103)        57.6716                                         !
 ! D352  D(75,95,96,72)         -0.1953                                         !
 ! D353  D(75,95,96,105)      -178.8959                                         !
 ! D354  D(106,95,96,72)       178.1855                                         !
 ! D355  D(106,95,96,105)       -0.5152                                         !
 ! D356  D(75,95,106,108)       -2.0253                                         !
 ! D357  D(75,95,106,112)      178.0562                                         !
 ! D358  D(96,95,106,108)      179.7735                                         !
 ! D359  D(96,95,106,112)       -0.145                                          !
 ! D360  D(72,96,105,102)        2.1257                                         !
 ! D361  D(72,96,105,111)     -177.8965                                         !
 ! D362  D(95,96,105,102)     -179.2466                                         !
 ! D363  D(95,96,105,111)        0.7312                                         !
 ! D364  D(81,102,105,96)      -31.5026                                         !
 ! D365  D(81,102,105,111)     148.5205                                         !
 ! D366  D(109,102,105,96)      82.0074                                         !
 ! D367  D(109,102,105,111)    -97.9695                                         !
 ! D368  D(110,102,105,96)    -159.4736                                         !
 ! D369  D(110,102,105,111)     20.5495                                         !
 ! D370  D(96,105,111,112)      -0.2836                                         !
 ! D371  D(96,105,111,113)     179.6769                                         !
 ! D372  D(102,105,111,112)    179.6922                                         !
 ! D373  D(102,105,111,113)     -0.3473                                         !
 ! D374  D(95,106,112,111)       0.5739                                         !
 ! D375  D(95,106,112,114)    -179.8256                                         !
 ! D376  D(108,106,112,111)   -179.3434                                         !
 ! D377  D(108,106,112,114)      0.2572                                         !
 ! D378  D(105,111,112,106)     -0.3646                                         !
 ! D379  D(105,111,112,114)   -179.9657                                         !
 ! D380  D(113,111,112,106)    179.6754                                         !
 ! D381  D(113,111,112,114)      0.0744                                         !
 ! D382  D(3,127,128,57)        -5.6353                                         !
 --------------------------------------------------------------------------------
 Stoichiometry    C40H74N4O6P2Ru2
 Framework group  C1[X(C40H74N4O6P2Ru2)]
 Deg. of freedom   378
 Full point group                 C1      NOp   1
 Largest Abelian subgroup         C1      NOp   1
 Largest concise Abelian subgroup C1      NOp   1
                         Standard orientation:                         
 ---------------------------------------------------------------------
 Center     Atomic      Atomic             Coordinates (Angstroms)
 Number     Number       Type             X           Y           Z
 ---------------------------------------------------------------------
      1          6           0       -1.334762    1.629619    3.696831
      2          1           0       -0.269766   -1.454555   -1.999980
      3          8           0       -1.000000   -0.948466    1.556126
      4          1           0       -0.694179   -3.518081   -0.617824
      5          8           0       -1.161817    0.999211   -0.435771
      6          6           0       -1.637923    2.425744    2.445635
      7          1           0       -0.437056   -1.556006   -3.772193
      8          6           0       -0.881374   -1.875254   -2.814747
      9          1           0       -1.365125   -2.973398    0.925887
     10          1           0       -0.801423   -2.971519   -2.771874
     11          6           0       -1.506817   -3.690452    0.102256
     12          1           0       -1.410684   -4.721478    0.483546
     13          1           0       -2.116554    2.783277   -0.019234
     14         44           0       -2.602570   -0.084849    0.602405
     15          1           0       -1.900177    0.682041   -2.254024
     16          7           0       -2.837157    1.950138    1.728060
     17          6           0       -3.062706    2.803872    0.546471
     18          6           0       -2.334920   -1.403934   -2.769554
     19          1           0       -1.860510    0.282700   -4.009539
     20          1           0       -2.247876   -4.413378   -2.457452
     21          6           0       -2.385223    0.102667   -3.055916
     22          6           0       -2.887019   -3.529203   -0.547600
     23         15           0       -3.009049   -1.684964   -1.006003
     24          1           0       -3.304962    3.844145    0.823652
     25          6           0       -3.044578   -4.508923   -1.709251
     26          1           0       -3.850939    1.179032    3.379480
     27          1           0       -3.642706    3.646138    3.904452
     28          1           0       -2.988251   -5.533365   -1.304024
     29          6           0       -4.033072    1.929512    2.600667
     30          1           0       -2.709592   -1.811609   -4.837709
     31          6           0       -3.719577   -0.907444    1.793947
     32          6           0       -3.149477   -2.096357   -3.866963
     33          1           0       -3.902297   -3.257533    1.387185
     34          6           0       -3.961622   -3.874143    0.484954
     35          1           0       -3.138033   -3.189669   -3.812887
     36          1           0       -3.810695   -4.921111    0.796194
     37          6           0       -4.132091    2.223107   -0.329302
     38          7           0       -4.097533    0.880187   -0.429388
     39          6           0       -4.427342    3.251434    3.242660
     40          1           0       -3.419252    0.456533   -3.186564
     41          1           0       -4.869043    1.547180    1.996835
     42          1           0       -4.017915   -4.410087   -2.213480
     43          1           0       -4.674076    4.027960    2.502984
     44          6           0       -4.831543   -1.277086   -1.218535
     45          1           0       -5.326313    3.091312    3.856690
     46          1           0       -4.196366   -1.757855   -3.886103
     47          6           0       -4.987102    0.214136   -1.197425
     48          6           0       -5.085338    2.964805   -1.017272
     49          1           0       -4.979606   -3.805404    0.070735
     50          1           0       -5.101113    4.050788   -0.918387
     51          1           0       -5.325187   -1.693000   -0.325005
     52          1           0       -5.307413   -1.720396   -2.103864
     53          6           0       -5.959746    0.909723   -1.911167
     54          6           0       -6.006722    2.298555   -1.822265
     55          1           0       -6.668965    0.361308   -2.531920
     56          1           0       -6.762855    2.859103   -2.374692
     57          1           0       -0.424380    0.376642   -0.585262
     58          8           0       -4.371274   -1.370255    2.641454
     59          6           0        1.303591   -1.373520    3.788029
     60          1           0        0.294812    1.588003   -1.998941
     61          8           0        1.038257    1.025110    1.614414
     62          1           0        0.889963    3.599724   -0.600819
[...]
 Alpha virt. eigenvalues --    4.87102   4.87242   4.87525   4.87819   4.88277
 Alpha virt. eigenvalues --    4.88461   4.88544   4.88794   4.89141   4.89197
 Alpha virt. eigenvalues --    4.89334   4.89734   4.89963   4.90531   4.90881
 Alpha virt. eigenvalues --    4.90932   4.91007   4.91190   4.91356   4.91768
 Alpha virt. eigenvalues --    4.92252   4.92328   4.92781   4.92930   4.93177
 Alpha virt. eigenvalues --    4.93354   4.93755   4.93802   4.93995   4.94051
 Alpha virt. eigenvalues --    4.94526   4.94800   4.95089   4.95170   4.95511
 Alpha virt. eigenvalues --    4.96185   4.96303   4.96610   4.96968   4.97162
 Alpha virt. eigenvalues --    4.97464   4.97805   4.97941   4.98248   4.98402
 Alpha virt. eigenvalues --    4.98915   4.99111   4.99841   5.00560   5.00733
 Alpha virt. eigenvalues --    5.01312   5.01764   5.02163   5.02406   5.02754
 Alpha virt. eigenvalues --    5.03129   5.03584   5.04146   5.04445   5.04746
 Alpha virt. eigenvalues --    5.05617   5.06182   5.06384   5.06661   5.06868
 Alpha virt. eigenvalues --    5.07277   5.08124   5.08268   5.08460   5.08827
 Alpha virt. eigenvalues --    5.08982   5.09472   5.09614   5.09811   5.10023
 Alpha virt. eigenvalues --    5.10317   5.10637   5.11113   5.11458   5.11566
 Alpha virt. eigenvalues --    5.12082   5.12580   5.12721   5.13242   5.13962
 Alpha virt. eigenvalues --    5.14135   5.14231   5.14295   5.15058   5.15521
 Alpha virt. eigenvalues --    5.15823   5.16581   5.16625   5.16957   5.17547
 Alpha virt. eigenvalues --    5.18115   5.18921   5.19175   5.19583   5.19929
 Alpha virt. eigenvalues --    5.20296   5.20824   5.20880   5.20970   5.21505
 Alpha virt. eigenvalues --    5.21830   5.22112   5.22384   5.22986   5.23145
 Alpha virt. eigenvalues --    5.23284   5.23648   5.23812   5.24157   5.24672
 Alpha virt. eigenvalues --    5.25226   5.25386   5.25440   5.25670   5.26176
 Alpha virt. eigenvalues --    5.26211   5.26524   5.26667   5.27290   5.27519
 Alpha virt. eigenvalues --    5.27584   5.27925   5.28350   5.28492   5.28881
 Alpha virt. eigenvalues --    5.29142   5.29357   5.29379   5.29744   5.29885
 Alpha virt. eigenvalues --    5.30439   5.30805   5.31015   5.31573   5.31941
 Alpha virt. eigenvalues --    5.32201   5.32752   5.33120   5.33543   5.33781
 Alpha virt. eigenvalues --    5.34128   5.34539   5.34751   5.35133   5.35522
 Alpha virt. eigenvalues --    5.35589   5.35965   5.36016   5.36119   5.36443
 Alpha virt. eigenvalues --    5.36641   5.36758   5.37383   5.37531   5.37634
 Alpha virt. eigenvalues --    5.37734   5.37996   5.38165   5.38349   5.38823
 Alpha virt. eigenvalues --    5.38899   5.39267   5.39406   5.39760   5.39861
 Alpha virt. eigenvalues --    5.40161   5.40207   5.40628   5.40694   5.41240
 Alpha virt. eigenvalues --    5.41353   5.41586   5.41801   5.42347   5.42413
 Alpha virt. eigenvalues --    5.42838   5.43026   5.43583   5.43920   5.43999
 Alpha virt. eigenvalues --    5.44159   5.44403   5.44489   5.45264   5.45378
 Alpha virt. eigenvalues --    5.45599   5.45965   5.46140   5.46205   5.46500
 Alpha virt. eigenvalues --    5.46729   5.47209   5.47521   5.48046   5.48285
 Alpha virt. eigenvalues --    5.48587   5.48996   5.49351   5.49770   5.49963
 Alpha virt. eigenvalues --    5.50354   5.50743   5.50956   5.51231   5.51520
 Alpha virt. eigenvalues --    5.51725   5.52147   5.52367   5.52551   5.52862
 Alpha virt. eigenvalues --    5.53183   5.53406   5.53568   5.53995   5.54277
 Alpha virt. eigenvalues --    5.54549   5.54892   5.55229   5.55554   5.55591
 Alpha virt. eigenvalues --    5.56241   5.56528   5.57006   5.57149   5.57261
 Alpha virt. eigenvalues --    5.57522   5.57785   5.58563   5.58961   5.59028
 Alpha virt. eigenvalues --    5.59499   5.59771   5.59832   5.60557   5.61060
 Alpha virt. eigenvalues --    5.61561   5.61814   5.62294   5.62847   5.63165
 Alpha virt. eigenvalues --    5.63328   5.64083   5.64435   5.64531   5.65511
 Alpha virt. eigenvalues --    5.66123   5.66793   5.67659   5.68379   5.68981
 Alpha virt. eigenvalues --    5.70146   5.70813   5.71278   5.72892   5.73532
 Alpha virt. eigenvalues --    5.74284   5.76181   5.77983   5.78399   5.80000
 Alpha virt. eigenvalues --    5.80816   5.82330   5.83520   5.87270   5.88346
 Alpha virt. eigenvalues --    5.88987   5.89742   5.91059   5.91145   5.94926
 Alpha virt. eigenvalues --    5.95485   6.00058   6.00285   6.00548   6.00619
 Alpha virt. eigenvalues --    6.01459   6.01756   6.01806   6.02250   6.02659
 Alpha virt. eigenvalues --    6.02895   6.03403   6.04066   6.04620   6.04788
 Alpha virt. eigenvalues --    6.04885   6.04994   6.06710   6.06929   6.07340
 Alpha virt. eigenvalues --    6.08025   6.08470   6.08747   6.09511   6.10394
 Alpha virt. eigenvalues --    6.10814   6.11463   6.11713   6.12165   6.13243
 Alpha virt. eigenvalues --    6.14079   6.14240   6.14547   6.14799   6.15328
 Alpha virt. eigenvalues --    6.16978   6.17479   6.17903   6.18906   6.19029
 Alpha virt. eigenvalues --    6.20358   6.20895   6.21771   6.22470   6.22654
 Alpha virt. eigenvalues --    6.23473   6.25060   6.25602   6.26950   6.27383
 Alpha virt. eigenvalues --    6.28567   6.29081   6.29917   6.30451   6.30699
 Alpha virt. eigenvalues --    6.31771   6.32285   6.34000   6.34391   6.35609
 Alpha virt. eigenvalues --    6.35860   6.41975   6.43035   6.44995   6.45543
 Alpha virt. eigenvalues --    6.51415   6.54867   6.55740   6.56248   6.59907
 Alpha virt. eigenvalues --    6.60832   6.61445   6.63528   6.64646   6.67027
 Alpha virt. eigenvalues --    6.68562   6.70429   6.74670   6.76103   6.76940
 Alpha virt. eigenvalues --    6.78189   6.78977   6.80540   6.82625   6.85667
 Alpha virt. eigenvalues --    6.86312   6.87666   6.88250   6.89716   6.90385
 Alpha virt. eigenvalues --    6.91870   6.93252   6.94787   6.95925   6.97814
 Alpha virt. eigenvalues --    6.98411   7.03590   7.08808   7.09021   7.32724
 Alpha virt. eigenvalues --    7.34491   7.38076   7.42410   7.50445   7.52668
 Alpha virt. eigenvalues --    7.55449   7.61292   8.79238   8.83598   9.81402
 Alpha virt. eigenvalues --    9.84453   9.99347  10.02392  10.15690  10.18633
 Alpha virt. eigenvalues --   10.97202  11.00011  12.31848  12.32317  12.42554
 Alpha virt. eigenvalues --   12.43613  12.69924  12.77392  12.88677  12.96750
 Alpha virt. eigenvalues --   13.04680  13.07062  13.10628  13.14565  13.23920
 Alpha virt. eigenvalues --   13.25779  13.28597  13.31992  13.34007  13.37397
 Alpha virt. eigenvalues --   13.55815  13.56090  13.67683  13.68706  13.70651
 Alpha virt. eigenvalues --   13.72089  13.80232  13.84127  13.86581  13.86759
 Alpha virt. eigenvalues --   13.90307  13.93109  13.96226  13.98208  14.04629
 Alpha virt. eigenvalues --   14.08332  14.18629  14.24231  14.36784  14.41783
 Alpha virt. eigenvalues --   15.07148  15.08335  35.62955  35.64487  35.69588
 Alpha virt. eigenvalues --   35.70739  35.79764  35.81468  46.39423  46.39960
          Condensed to atoms (all electrons):
 Mulliken charges:
               1
     1  C   -0.368570
     2  H    0.117585
     3  O   -0.764690
     4  H    0.124327
     5  O   -0.793595
     6  C   -0.137979
     7  H    0.107900
     8  C   -0.376679
     9  H    0.147516
    10  H    0.123427
    11  C   -0.363075
    12  H    0.106333
    13  H    0.180249
    14  Ru   1.028824
    15  H    0.157607
    16  N   -0.200576
    17  C   -0.147047
    18  C    0.025411
    19  H    0.106879
    20  H    0.119183
    21  C   -0.410266
    22  C    0.006450
    23  P    0.071860
    24  H    0.125837
    25  C   -0.334229
    26  H    0.130078
    27  H    0.112557
    28  H    0.107774
    29  C   -0.126116
    30  H    0.108235
    31  C   -0.205050
    32  C   -0.338084
    33  H    0.141623
    34  C   -0.376518
    35  H    0.121539
    36  H    0.110767
    37  C    0.101371
    38  N   -0.143754
    39  C   -0.330877
    40  H    0.123667
    41  H    0.141770
    42  H    0.113253
    43  H    0.111131
    44  C   -0.241396
    45  H    0.117396
    46  H    0.113160
    47  C    0.031372
    48  C   -0.147889
    49  H    0.118672
    50  H    0.162276
    51  H    0.169233
    52  H    0.140436
    53  C   -0.121426
    54  C   -0.141696
    55  H    0.163788
    56  H    0.162942
    57  H    0.290417
    58  O   -0.299974
    59  C   -0.370237
    60  H    0.119329
    61  O   -0.746526
    62  H    0.122751
    63  O   -0.822220
    64  C   -0.134466
    65  H    0.108118
    66  C   -0.379003
    67  H    0.128126
    68  H    0.125310
    69  C   -0.352608
    70  H    0.107804
    71  H    0.184171
    72  Ru   1.022277
    73  H    0.166302
    74  N   -0.206112
    75  C   -0.146582
    76  C    0.023015
    77  H    0.108771
    78  H    0.120155
    79  C   -0.411186
    80  C    0.007027
    81  P    0.071194
    82  H    0.126103
    83  C   -0.334802
    84  H    0.128846
    85  H    0.112674
    86  H    0.107914
    87  C   -0.125562
    88  H    0.108309
    89  C   -0.204609
    90  C   -0.337465
    91  H    0.143135
    92  C   -0.376155
    93  H    0.122017
    94  H    0.110134
    95  C    0.109887
    96  N   -0.144727
    97  C   -0.331589
    98  H    0.125572
    99  H    0.142167
   100  H    0.112873
   101  H    0.111280
   102  C   -0.238506
   103  H    0.117352
   104  H    0.113457
   105  C    0.031493
   106  C   -0.149903
   107  H    0.117679
   108  H    0.163001
   109  H    0.171683
   110  H    0.141471
   111  C   -0.122855
   112  C   -0.137907
   113  H    0.164330
   114  H    0.163201
   115  H    0.309421
   116  O   -0.302738
   117  H    0.116716
   118  H    0.141656
   119  H    0.119560
   120  H    0.129202
   121  H    0.130134
   122  H    0.113754
   123  H    0.135238
   124  H    0.117681
   125  H    0.128200
   126  H    0.135536
   127  H    0.279367
   128  H    0.287003
 Sum of Mulliken charges =  -0.00000
 Mulliken charges with hydrogens summed into heavy atoms:
               1
     1  C    0.010325
     3  O   -0.485323
     5  O   -0.503179
     6  C    0.120393
     8  C   -0.027766
    11  C    0.015100
    14  Ru   1.028824
    16  N   -0.200576
    17  C    0.159039
    18  C    0.025411
    21  C   -0.022112
    22  C    0.006450
    23  P    0.071860
    25  C    0.005981
    29  C    0.145732
    31  C   -0.205050
    32  C    0.004849
    34  C   -0.005455
    37  C    0.101371
    38  N   -0.143754
    39  C    0.010208
    44  C    0.068273
    47  C    0.031372
    48  C    0.014387
    53  C    0.042362
    54  C    0.021247
    58  O   -0.299974
    59  C    0.011181
    61  O   -0.459523
    63  O   -0.512798
    64  C    0.114526
    66  C   -0.026247
    69  C    0.006073
    72  Ru   1.022277
    74  N   -0.206112
    75  C    0.163692
    76  C    0.023015
    79  C   -0.010541
    80  C    0.007027
    81  P    0.071194
    83  C    0.006140
    87  C    0.145451
    89  C   -0.204609
    90  C    0.006318
    92  C   -0.005208
    95  C    0.109887
    96  N   -0.144727
    97  C    0.009717
   102  C    0.074647
   105  C    0.031493
   106  C    0.013098
   111  C    0.041475
   112  C    0.025293
   116  O   -0.302738
 Electronic spatial extent (au):  <R**2>=          35373.2536
 Charge=             -0.0000 electrons
 Dipole moment (field-independent basis, Debye):
    X=              0.0347    Y=             -0.4091    Z=            -11.6361  Tot=             11.6434
 Quadrupole moment (field-independent basis, Debye-Ang):
   XX=           -273.1633   YY=           -330.7283   ZZ=           -376.9130
   XY=            -33.5148   XZ=             -1.2663   YZ=             -0.1037
 Traceless Quadrupole moment (field-independent basis, Debye-Ang):
   XX=             53.7716   YY=             -3.7934   ZZ=            -49.9782
   XY=            -33.5148   XZ=             -1.2663   YZ=             -0.1037
 Octapole moment (field-independent basis, Debye-Ang**2):
  XXX=            -13.2101  YYY=             -2.1314  ZZZ=             25.1450  XYY=              1.0396
  XXY=             -2.0661  XXZ=           -265.1596  XZZ=              3.6796  YZZ=              0.4160
  YYZ=             -0.6109  XYZ=            -82.5461
 Hexadecapole moment (field-independent basis, Debye-Ang**3):
 XXXX=         -23961.3137 YYYY=         -10909.6487 ZZZZ=          -9812.0187 XXXY=           -967.7698
 XXXZ=              4.7191 YYYX=           -345.8851 YYYZ=              0.2854 ZZZX=             -8.0479
 ZZZY=              1.2745 XXYY=          -5563.2882 XXZZ=          -5823.0909 YYZZ=          -3542.9535
 XXYZ=              7.7241 YYXZ=            -14.7786 ZZXY=           -249.2313
 N-N= 1.080674883909D+04 E-N=-2.885389194197D+04  KE= 2.970289045296D+03
 1\1\GINC-NODE281\SP\RPBE1PBE\GenECP\C40H74N4O6P2Ru2\JS1212\28-Feb-2020
 \0\\# genecp pbe1pbe EmpiricalDispersion=GD3BJ scrf=(SMD,solvent=water
 ) geom=allcheck\\Title Card Required\\0,1\C,0,-0.4611177126,-9.6012825
 726,1.6765268694\H,0,5.097442427,-7.8607013955,-1.3521347901\O,0,2.603
 6929759,-8.2558843762,1.3049893747\H,0,5.694129988,-6.9437654838,0.917
 6257198\O,0,2.676955094,-9.687100075,-1.0894912141\C,0,-0.0642779719,-
 10.444786461,0.4839528894\H,0,6.4050545933,-8.1890444283,-2.5189074464
 \C,0,6.1179210453,-8.2638868312,-1.4568369119\H,0,4.5036003347,-7.5833
 936832,2.05929459\H,0,6.8023331625,-7.6144363407,-0.8913094495\C,0,5.5
 824099073,-7.4373987499,1.8935620684\H,0,5.9911767435,-6.7626026661,2.
 6650536469\H,0,1.495672037,-11.3701812708,-1.2888117616\Ru,0,3.1627690
 178,-10.1853781234,0.871240269\H,0,4.3394851175,-10.3877450378,-1.9243
 006542\N,0,1.1120939743,-11.299242623,0.7395520551\C,0,1.3992208207,-1
 2.0984015307,-0.4665941018\C,0,6.2254714431,-9.7259912569,-1.023633161
 1\H,0,5.7716876447,-10.3834028214,-3.0159306401\H,0,8.0155770674,-8.02
 78638374,0.7295420069\C,0,5.4185515658,-10.5994740983,-1.9933164844\C,
 0,6.3412762825,-8.7694775063,1.9479543256\P,0,5.4446922853,-9.90415319
 28,0.7090479011\H,0,0.5889840071,-12.8111135613,-0.6973387135\C,0,7.82
 83027751,-8.5446901909,1.679009025\H,0,0.8427642767,-11.5201284493,2.7
 958152304\H,0,-1.2352456096,-12.5711996143,1.8045074364\H,0,8.22907030
 34,-7.9035186713,2.482220838\C,0,0.9160678093,-12.1737121309,1.9180918
 229\H,0,8.0024222906,-10.1077041269,-2.155262003\C,0,3.2684310924,-10.
 5284562398,2.6643584441\C,0,7.6817628811,-10.1951563504,-1.1033791437\
 H,0,5.1804896667,-9.5014082651,3.6698258293\C,0,6.2185135799,-9.349776
 6254,3.3579570617\H,0,8.3781362433,-9.6032533157,-0.5008018248\H,0,6.6
 677711126,-8.6301269654,4.0622749316\C,0,2.7116895338,-12.8100699619,-
 0.3294652701\N,0,3.6721443329,-12.0884847434,0.2800305196\C,0,-0.28053
 93147,-13.1125073107,1.8747683851\H,0,5.5915840859,-11.6715206378,-1.8
 136417445\H,0,1.8397007435,-12.7567373684,2.0470196418\H,0,8.404253381
 6,-9.4825192793,1.6915612872\H,0,-0.2307561327,-13.8286995215,1.040752
 0609\C,0,5.8831056372,-11.6777484694,1.1508337053\H,0,-0.302446582,-13
 .6995033424,2.805238548\H,0,7.7944871241,-11.2547422149,-0.8286088662\
 C,0,4.9135762119,-12.5896641588,0.4603197317\C,0,2.9715394937,-14.0941
 008958,-0.7940506685\H,0,6.7684275485,-10.2970128721,3.4716756212\H,0,
 2.1790131876,-14.6649663143,-1.2792329431\H,0,5.7193149863,-11.7518717
 285,2.2383738114\H,0,6.9235602817,-11.9646819063,0.9461238924\C,0,5.22
 78100489,-13.8692413645,0.0094930134\C,0,4.2478182146,-14.6269190117,-
 0.6265157521\H,0,6.23491355,-14.2608102482,0.1561204187\H,0,4.47714051
 3,-15.6317421824,-0.9854994528\H,0,2.9653484538,-8.7609056665,-1.20238
 99279\O,0,3.2165356206,-10.7168847862,3.8128233807\C,0,0.6737461026,-5
 .7944476913,2.1327720483\H,0,2.8712623139,-8.9865121143,-3.1831397595\
 O,0,0.5974811255,-7.5744533757,-0.5827746993\H,0,0.3939397941,-9.35439
 99407,-3.4721076885\O,0,3.2244080852,-6.7986315029,-1.0878653122\C,0,1
 .9970427149,-5.2898365823,1.5980895344\H,0,3.9994329875,-9.1206531366,
 -4.5501028321\C,0,3.0014668104,-8.758902587,-4.2509056802\H,0,-0.53138
 92559,-8.2691920458,-2.4204766337\H,0,2.2625379837,-9.3445176524,-4.81
 71349521\C,0,-0.4368516597,-8.633707198,-3.4561766254\H,0,-1.357001436
 ,-9.1687481882,-3.746659786\H,0,3.8342277751,-5.0135682345,-0.15085286
 62\Ru,0,1.3843004684,-5.9227697524,-1.5372208433\H,0,4.0775770065,-6.6
 145055014,-2.8224395277\N,0,1.8680195443,-4.5801277876,0.3073966739\C,
 0,3.1980555057,-4.1117513899,-0.1260542297\C,0,2.909556257,-7.26332167
 24,-4.557403839\H,0,5.0244656519,-7.020379468,-4.2931636745\H,0,0.7045
 180168,-8.752791891,-5.974720067\C,0,4.1031492763,-6.5431191425,-3.918
 7447157\C,0,-0.2042801189,-7.4729812823,-4.4312266479\P,0,1.3273291841
 ,-6.5618684052,-3.7549621344\H,0,3.6237596606,-3.3622232925,0.56224975
 72\C,0,-0.0831832205,-7.9978409623,-5.8611347259\H,0,-0.0758278967,-3.
 8697976674,0.5802479838\H,0,1.2201692009,-2.7813903851,2.4573229423\H,
 0,-1.0376189613,-8.4809376395,-6.1303357149\C,0,0.9180567769,-3.446421
 012,0.3925088917\H,0,3.9765002096,-7.4186950391,-6.4073232514\C,0,-0.2
 97463558,-5.2151430674,-1.6395479155\C,0,3.0004246608,-7.0316110471,-6
 .0691214219\H,0,-1.6226961954,-6.1379390134,-3.4004920428\C,0,-1.41997
 61883,-6.5449755606,-4.3959067288\H,0,2.2278061157,-7.5457721961,-6.64
 97777436\H,0,-2.3049118368,-7.1320557714,-4.6927887939\C,0,3.144568267
 8,-3.5874406243,-1.5285894112\N,0,2.3474415887,-4.291707571,-2.3536707
 373\C,0,1.225252677,-2.3801340042,1.4335127728\H,0,4.147628253,-5.4849
 804079,-4.2182939518\H,0,0.8710458675,-2.9867353162,-0.6056479465\H,0,
 0.0910669488,-7.1917035891,-6.5897594627\H,0,2.1931925718,-1.884538556
 8,1.2647114258\C,0,1.280266255,-4.8162179882,-4.4505942038\H,0,0.44886
 77801,-1.6020933464,1.3805882716\H,0,2.9804127041,-5.9626038302,-6.329
 130856\C,0,2.2135122021,-3.95531428,-3.6537441998\C,0,3.864842001,-2.4
 939162285,-1.9967570936\H,0,-1.3315373763,-5.7132217654,-5.1120892855\
 H,0,4.5028940731,-1.9326210053,-1.313370031\H,0,0.2503139982,-4.466224
 7389,-4.2719123907\H,0,1.4788772804,-4.7398369697,-5.528279638\C,0,2.9
 160437248,-2.8714142678,-4.175460097\C,0,3.7519063205,-2.1375242761,-3
 .3383554492\H,0,2.8046759179,-2.611372607,-5.2285111361\H,0,4.30937636
 1,-1.2848979823,-3.73030796\H,0,3.0949549664,-7.2323666671,-0.21483626
 34\O,0,-1.3761655086,-4.7788290089,-1.5719584127\H,0,-0.9108474591,-11
 .0750076164,0.1470641902\H,0,0.2056112333,-9.7866666592,-0.3491194049\
 H,0,-0.9463558952,-10.1851366808,2.4743942466\H,0,-1.1617265561,-8.826
 2709101,1.3378086449\H,0,0.4222354386,-9.0894125969,2.0870902361\H,0,2
 .496680843,-4.6259887775,2.3307908297\H,0,2.650212165,-6.158047954,1.4
 317758357\H,0,0.0070836303,-4.9890355211,2.479186278\H,0,0.8753438276,
 -6.4586414378,2.9848172945\H,0,0.1682027759,-6.3914410678,1.3585938931
 \H,0,1.7667407387,-8.090246686,0.8235053214\H,0,1.1476202911,-8.294557
 0105,-0.9375917156\\Version=ES64L-G16RevA.03\State=1-A\HF=-3110.029430
 8\RMSD=8.887e-10\Dipole=3.1701509,-0.5270703,-3.2644455\Quadrupole=-24
 .9976967,48.512347,-23.5146503,2.4107926,11.1811775,-14.7897154\PG=C01
  [X(C40H74N4O6P2Ru2)]\\@


 I MET A TRAVELLER FROM AN ANTIQUE LAND
 WHO SAID... TWO VAST AND TRUNKLESS LEGS OF STONE
 STAND IN THE DESERT..... NEAR THEM,  ON THE SAND,
 HALF SUNK,  A SHATTERED VISAGE LIES,  WHOSE FROWN,
 AND WRINKLED LIP,  AND SNEER OF COLD COMMAND
 TELL THAT ITS SCULPTOR WELL THOSE PASSIONS READ
 WHICH YET SURVIVE,  STAMPED ON THESE LIFELESS THINGS
 THE HAND THAT MOCKED THEM,  AND THE HEART THAT FED-
 AND ON THE PEDESTAL THESE WORDS APPEAR 
 MY NAME IS OZYMANDIAS, KING OF KINGS--   
 LOOK ON MY WORKS YE MIGHTY AND DESPAIR. 
 NOTHING BESIDE REMAINS,  ROUND THE DECAY 
 OF THAT COLOSSAL WRECK,  BOUNDLESS AND BARE
 THE LONE AND LEVEL SANDS STRETCH FAR AWAY.
                                    SHELLEY
 Job cpu time:       3 days  9 hours 37 minutes  4.5 seconds.
 Elapsed time:       0 days  4 hours  5 minutes 32.2 seconds.
 File lengths (MBytes):  RWF=   4643 Int=      0 D2E=      0 Chk=    503 Scr=      1
 Normal termination of Gaussian 16 at Fri Feb 28 18:23:06 2020.
