128
	Energy: -1951572.9167082
C         -1.33476        1.62962        3.69683
H         -0.26977       -1.45456       -1.99998
O         -1.00000       -0.94847        1.55613
H         -0.69418       -3.51808       -0.61782
O         -1.16182        0.99921       -0.43577
C         -1.63792        2.42574        2.44563
H         -0.43706       -1.55601       -3.77219
C         -0.88137       -1.87525       -2.81475
H         -1.36512       -2.97340        0.92589
H         -0.80142       -2.97152       -2.77187
C         -1.50682       -3.69045        0.10226
H         -1.41068       -4.72148        0.48355
H         -2.11655        2.78328       -0.01923
Ru        -2.60257       -0.08485        0.60240
H         -1.90018        0.68204       -2.25402
N         -2.83716        1.95014        1.72806
C         -3.06271        2.80387        0.54647
C         -2.33492       -1.40393       -2.76955
H         -1.86051        0.28270       -4.00954
H         -2.24788       -4.41338       -2.45745
C         -2.38522        0.10267       -3.05592
C         -2.88702       -3.52920       -0.54760
P         -3.00905       -1.68496       -1.00600
H         -3.30496        3.84415        0.82365
C         -3.04458       -4.50892       -1.70925
H         -3.85094        1.17903        3.37948
H         -3.64271        3.64614        3.90445
H         -2.98825       -5.53336       -1.30402
C         -4.03307        1.92951        2.60067
H         -2.70959       -1.81161       -4.83771
C         -3.71958       -0.90744        1.79395
C         -3.14948       -2.09636       -3.86696
H         -3.90230       -3.25753        1.38718
C         -3.96162       -3.87414        0.48495
H         -3.13803       -3.18967       -3.81289
H         -3.81069       -4.92111        0.79619
C         -4.13209        2.22311       -0.32930
N         -4.09753        0.88019       -0.42939
C         -4.42734        3.25143        3.24266
H         -3.41925        0.45653       -3.18656
H         -4.86904        1.54718        1.99683
H         -4.01792       -4.41009       -2.21348
H         -4.67408        4.02796        2.50298
C         -4.83154       -1.27709       -1.21853
H         -5.32631        3.09131        3.85669
H         -4.19637       -1.75785       -3.88610
C         -4.98710        0.21414       -1.19742
C         -5.08534        2.96481       -1.01727
H         -4.97961       -3.80540        0.07074
H         -5.10111        4.05079       -0.91839
H         -5.32519       -1.69300       -0.32500
H         -5.30741       -1.72040       -2.10386
C         -5.95975        0.90972       -1.91117
C         -6.00672        2.29855       -1.82227
H         -6.66897        0.36131       -2.53192
H         -6.76286        2.85910       -2.37469
H         -0.42438        0.37664       -0.58526
O         -4.37127       -1.37026        2.64145
C          1.30359       -1.37352        3.78803
H          0.29481        1.58800       -1.99894
O          1.03826        1.02511        1.61441
H          0.88996        3.59972       -0.60082
O          1.09120       -0.88920       -0.40805
C          1.55019       -2.25204        2.58013
H          0.43562        1.60929       -3.77068
C          0.91906        1.93554       -2.83465
H          1.62411        3.10560        0.93434
H          0.91009        3.03531       -2.83283
C          1.74815        3.77187        0.06532
H          1.71600        4.82376        0.39669
H          1.98309       -2.72548        0.11055
Ru         2.60225        0.12276        0.61552
H          1.74851       -0.65907       -2.22066
N          2.75934       -1.86762        1.82092
C          2.92848       -2.78423        0.67748
C          2.33958        1.37024       -2.79326
H          1.76399       -0.31890       -3.98372
H          2.40859        4.37481       -2.55388
C          2.28703       -0.14409       -3.02839
C          3.08265        3.51160       -0.64424
P          3.06784        1.64973       -1.05231
H          3.11897       -3.82273        0.99687
C          3.23871        4.44917       -1.84065
H          3.84335       -1.07408        3.41866
H          3.51821       -3.49458        4.06914
H          3.25147        5.48578       -1.46371
C          3.97091       -1.86838        2.67360
H          2.69610        1.69491       -4.87946
C          3.76844        0.93623        1.76348
C          3.17664        1.97283       -3.92616
H          4.19024        3.22897        1.23990
C          4.22682        3.82382        0.32206
H          3.24462        3.06520       -3.90259
H          4.14280        4.88270        0.61809
C          4.00795       -2.29506       -0.23921
N          4.03247       -0.95918       -0.40353
C          4.30793       -3.17694        3.37295
H          3.29447       -0.57481       -3.13282
H          4.81461       -1.55973        2.03898
H          4.18438        4.28658       -2.37953
H          4.49584       -4.00159        2.66892
C          4.85699        1.12496       -1.29099
H          5.22779       -3.03581        3.96020
H          4.19586        1.55927       -3.95705
C          4.93388       -0.37027       -1.21712
C          4.90832       -3.11179       -0.91452
H          5.21535        3.69907       -0.14678
H          4.87646       -4.19174       -0.76656
H          5.39407        1.54156       -0.42312
H          5.33725        1.51112       -2.20034
C          5.85550       -1.14217       -1.92095
C          5.83838       -2.52595       -1.76976
H          6.57610       -0.65667       -2.57971
H          6.55364       -3.14599       -2.31319
H          0.38008       -1.02765        0.25693
O          4.44257        1.39800        2.59466
H         -1.75243        3.50226        2.68089
H         -0.80012        2.33087        1.74631
H         -2.02715        1.84874        4.52480
H         -0.31432        1.86984        4.02428
H         -1.36384        0.55228        3.47461
H          1.62589       -3.31834        2.87075
H          0.69051       -2.14886        1.90309
H          2.03483       -1.52819        4.59704
H          0.30462       -1.60278        4.18461
H          1.30428       -0.31685        3.48018
H         -0.38513       -0.22179        1.78772
H          0.41886        1.21775        0.88892
