 Entering Gaussian System, Link 0=g16
 Initial command:
 /cluster/chemistry/gaussian/g16/l1.exe "/scratch/js1212.578216/scratch/Gau-15421.inp" -scrdir="/scratch/js1212.578216/scratch/"
 Entering Link 1 = /cluster/chemistry/gaussian/g16/l1.exe PID=     15422.
  
 Copyright (c) 1988,1990,1992,1993,1995,1998,2003,2009,2016,
            Gaussian, Inc.  All Rights Reserved.
  
 This is part of the Gaussian(R) 16 program.  It is based on
 the Gaussian(R) 09 system (copyright 2009, Gaussian, Inc.),
 the Gaussian(R) 03 system (copyright 2003, Gaussian, Inc.),
 the Gaussian(R) 98 system (copyright 1998, Gaussian, Inc.),
 the Gaussian(R) 94 system (copyright 1995, Gaussian, Inc.),
 the Gaussian 92(TM) system (copyright 1992, Gaussian, Inc.),
 the Gaussian 90(TM) system (copyright 1990, Gaussian, Inc.),
 the Gaussian 88(TM) system (copyright 1988, Gaussian, Inc.),
 the Gaussian 86(TM) system (copyright 1986, Carnegie Mellon
 University), and the Gaussian 82(TM) system (copyright 1983,
 Carnegie Mellon University). Gaussian is a federally registered
 trademark of Gaussian, Inc.
  
 This software contains proprietary and confidential information,
 including trade secrets, belonging to Gaussian, Inc.
  
 This software is provided under written license and may be
 used, copied, transmitted, or stored only in accord with that
 written license.
  
 The following legend is applicable only to US Government
 contracts under FAR:
  
                    RESTRICTED RIGHTS LEGEND
  
 Use, reproduction and disclosure by the US Government is
 subject to restrictions as set forth in subparagraphs (a)
 and (c) of the Commercial Computer Software - Restricted
 Rights clause in FAR 52.227-19.
  
 Gaussian, Inc.
 340 Quinnipiac St., Bldg. 40, Wallingford CT 06492
  
  
 ---------------------------------------------------------------
 Warning -- This program may not be used in any manner that
 competes with the business of Gaussian, Inc. or will provide
 assistance to any competitor of Gaussian, Inc.  The licensee
 of this program is prohibited from giving any competitor of
 Gaussian, Inc. access to this program.  By using this program,
 the user acknowledges that Gaussian, Inc. is engaged in the
 business of creating and licensing software in the field of
 computational chemistry and represents and warrants to the
 licensee that it is not a competitor of Gaussian, Inc. and that
 it will not use this program in any manner prohibited above.
 ---------------------------------------------------------------
  

 Cite this work as:
 Gaussian 16, Revision A.03,
 M. J. Frisch, G. W. Trucks, H. B. Schlegel, G. E. Scuseria, 
 M. A. Robb, J. R. Cheeseman, G. Scalmani, V. Barone, 
 G. A. Petersson, H. Nakatsuji, X. Li, M. Caricato, A. V. Marenich, 
 J. Bloino, B. G. Janesko, R. Gomperts, B. Mennucci, H. P. Hratchian, 
 J. V. Ortiz, A. F. Izmaylov, J. L. Sonnenberg, D. Williams-Young, 
 F. Ding, F. Lipparini, F. Egidi, J. Goings, B. Peng, A. Petrone, 
 T. Henderson, D. Ranasinghe, V. G. Zakrzewski, J. Gao, N. Rega, 
 G. Zheng, W. Liang, M. Hada, M. Ehara, K. Toyota, R. Fukuda, 
 J. Hasegawa, M. Ishida, T. Nakajima, Y. Honda, O. Kitao, H. Nakai, 
 T. Vreven, K. Throssell, J. A. Montgomery, Jr., J. E. Peralta, 
 F. Ogliaro, M. J. Bearpark, J. J. Heyd, E. N. Brothers, K. N. Kudin, 
 V. N. Staroverov, T. A. Keith, R. Kobayashi, J. Normand, 
 K. Raghavachari, A. P. Rendell, J. C. Burant, S. S. Iyengar, 
 J. Tomasi, M. Cossi, J. M. Millam, M. Klene, C. Adamo, R. Cammi, 
 J. W. Ochterski, R. L. Martin, K. Morokuma, O. Farkas, 
 J. B. Foresman, and D. J. Fox, Gaussian, Inc., Wallingford CT, 2016.
 
 ******************************************
 Gaussian 16:  ES64L-G16RevA.03 25-Dec-2016
                28-Feb-2020 
 ******************************************
 %rwf=/scratch/js1212.578216/F-R2-S2-Up-GP-Disp-SMD.rwf
 %nosave
 %nprocshared=20
 Will use up to   20 processors via shared memory.
 %mem=3000MB
 %chk=/scratch/js1212.578216/F-R2-S2-Up-GPOF-Disp.chk
 ----------------------------------------------------------------------
 # genecp pbe1pbe EmpiricalDispersion=GD3BJ scrf=(SMD,solvent=water) ge
 om=allcheck
 ----------------------------------------------------------------------
 1/29=7,38=1,172=1/1;
 2/12=2,40=1/2;
 3/5=7,11=2,14=-4,16=1,17=8,25=1,30=1,70=32201,72=1,74=-13,124=41/1,2,3;
 4//1;
 5/5=2,38=5,53=1/2;
 6/7=2,8=2,9=2,10=2,28=1/1;
 99/5=1,9=1/99;
 Structure from the checkpoint file:  "/scratch/js1212.578216/F-R2-S2-Up-GPOF-Disp.chk"
 -------------------
 Title Card Required
 -------------------
 Charge =  0 Multiplicity = 1
 Redundant internal coordinates found in file.  (old form).
 C,0,1.673818682,-3.5281320619,4.3652121384
 H,0,-0.1888134207,-4.207708771,-2.0056979637
 O,0,1.892578794,-4.047886937,1.21787653
 H,0,2.2120459695,-4.8040066129,-2.1872838745
 O,0,-0.8914904003,-4.316593067,1.0686226114
 H,0,1.5838466855,-3.6370913159,0.3899103088
 C,0,0.2188099024,-3.8968614781,4.1711681725
 H,0,-1.4179681463,-4.7387941003,-3.1863619526
 C,0,-0.5159855758,-5.0524423448,-2.6322986617
 H,0,2.9715202997,-5.1277042441,-0.6224050079
 H,0,0.2683005781,-5.2446883063,-3.3786805843
 C,0,2.8313761829,-5.52644328,-1.6382184971
 H,0,3.8101543194,-5.5893946102,-2.1435717129
 H,0,-1.8108301811,-4.76364245,2.904150903
 Ru,0,0.6272609679,-5.6684873005,1.4713497684
 H,0,-1.9282446863,-5.2361610259,-0.2236172796
 N,0,0.0300145368,-5.2810356383,3.6844565696
 C,0,-1.4145321227,-5.5543254449,3.5637969995
 C,0,-0.8602533394,-6.3004588051,-1.8162439301
 H,0,-2.9127598497,-5.6924272979,-1.663433563
 H,0,1.4530394106,-6.8201046163,-3.668107623
 C,0,-2.1126331938,-6.0178605023,-0.9761288848
 C,0,2.1944504181,-6.9183515642,-1.5958184787
 P,0,0.5778360755,-6.6838085751,-0.61284935
 H,0,-1.9273283063,-5.5307395765,4.5400429104
 C,0,2.0373236356,-7.4749791691,-3.010323624
 H,0,1.7563285241,-6.1103447827,4.5162247299
 H,0,0.4528275438,-5.3139914598,6.5320415681
 H,0,3.0427715345,-7.5681230391,-3.4544596075
 C,0,0.6739306163,-6.2746718954,4.5756871227
 H,0,-2.0539974464,-7.145025156,-3.3808638728
 C,0,2.0679322884,-6.6656845051,1.9982811212
 C,0,-1.2016462043,-7.4616315881,-2.7561179755
 H,0,3.3397011185,-7.5450630302,0.1800618604
 C,0,3.1302309552,-7.8673854348,-0.8446166444
 H,0,-0.3898659038,-7.747095967,-3.4331448561
 H,0,4.0935600544,-7.8890126184,-1.3808364165
 C,0,-1.6554365029,-6.8534934855,2.8593049629
 N,0,-0.8040594101,-7.1067973574,1.8475969861
 C,0,0.2333258381,-6.2684947154,6.0320474107
 H,0,-2.4760842182,-6.9258051428,-0.4703664186
 H,0,0.4914472002,-7.2667093633,4.1373071453
 H,0,1.5849443734,-8.478227254,-3.0170611636
 H,0,-0.8394071021,-6.480582796,6.1550931412
 C,0,0.1045079985,-8.3866877012,0.0240917971
 H,0,0.7832260559,-7.055917166,6.5691749964
 H,0,-1.5315551665,-8.3563627648,-2.2073764084
 C,0,-0.9205995708,-8.2262899497,1.1028254005
 C,0,-2.6865328928,-7.7363759788,3.1617065835
 H,0,2.7508718271,-8.9008665439,-0.8249663593
 H,0,-3.3631375652,-7.5154262345,3.9878886874
 H,0,1.0258802823,-8.7830309654,0.4811865851
 H,0,-0.2220344177,-9.0972170344,-0.7469885177
 C,0,-1.940138336,-9.1405167421,1.3575899994
 C,0,-2.8327888996,-8.8900961385,2.3958910257
 H,0,-2.0266214976,-10.0377917188,0.7441411883
 H,0,-3.6369864409,-9.5960133574,2.611067225
 H,0,-0.5970738329,-3.4479589505,1.4298785475
 O,0,3.0107240126,-7.2037718343,2.4228580635
 H,0,-3.4163503188,-2.7875595776,1.8121577416
 C,0,-3.0004333591,-1.8381643828,1.4450933518
 H,0,-3.7402490608,-1.0477224462,1.646362034
 H,0,-2.0742744799,-1.6367624638,2.0046345357
 H,0,3.4683295915,-3.0025103032,0.2643958796
 O,0,0.1751152296,-1.8513101125,1.8279466071
 H,0,3.5909494933,-1.6958546369,2.3057372474
 O,0,0.432664485,-2.5716880383,-0.8526870273
 C,0,-2.6797843688,-1.9956842978,-0.0260756951
 H,0,4.7758387252,-3.1407907547,-0.9356480258
 H,0,-3.6023935064,-2.1458701984,-0.6208875994
 C,0,4.2594044354,-2.4405821242,-0.2575186556
 H,0,2.0935355843,-0.8534116598,2.7242509052
 H,0,4.9970087137,-2.117471508,0.4905827032
 H,0,-2.0535646223,-2.8893146132,-0.1489693179
 C,0,3.1788847246,-0.7191870572,2.5955114904
 H,0,3.63011872,-0.4300817607,3.5598639771
 H,0,-1.216646962,-2.0835593101,-2.0871552672
 Ru,0,0.304569476,-0.7262941513,0.0999752959
 H,0,2.0166848172,-2.3719844106,-1.9099938346
 N,0,-1.9197531721,-0.8569144319,-0.5829201783
 C,0,-1.6889934746,-1.0897396709,-2.0208791466
 C,0,3.7247321972,-1.2716432878,-1.0886645101
 H,0,3.5551315313,-2.4985351342,-2.8409374571
 H,0,5.5162546743,-0.3444730216,1.1261124921
 C,0,2.903458764,-1.8231736533,-2.2605394991
 C,0,3.4742512202,0.3669285059,1.555671369
 P,0,2.5583632411,-0.2041042763,-0.0150639858
 H,0,-2.6265818388,-1.0766728271,-2.601902019
 C,0,4.9812587494,0.5714858215,1.4028408933
 H,0,-2.6268715756,0.6219026358,0.7101187711
 H,0,-4.7134403379,-0.1779767435,-0.474717593
 H,0,5.3814874251,0.9003425722,2.3766521358
 C,0,-2.6129124563,0.4344320816,-0.37011484
 H,0,5.5032963303,-1.182637852,-2.2785852768
 C,0,-0.0577598932,0.7774007149,1.0727987447
 C,0,4.8921585101,-0.479615079,-1.6877835968
 H,0,1.8192604602,1.6512643126,2.2407020095
 C,0,2.8958672301,1.6938754061,2.0507326019
 H,0,5.552415135,-0.0187901509,-0.9452998768
 H,0,3.384162298,1.9390681016,3.008540538
 C,0,-0.7002617217,-0.110272007,-2.5755670055
 N,0,0.3101220463,0.2000828857,-1.7421199582
 C,0,-4.0239048117,0.5489251088,-0.9282350686
 H,0,2.5809053755,-1.02250805,-2.9443313328
 H,0,-1.9760245026,1.2173915235,-0.8075967203
 H,0,5.2224733838,1.3571446262,0.6705824686
 H,0,-4.0636818683,0.422680798,-2.0206341378
 C,0,2.3341724646,1.3260044326,-1.0824051632
 H,0,-4.4108818371,1.5542773701,-0.7037882155
 H,0,4.5493887496,0.299934624,-2.3846102313
 C,0,1.2926637219,1.0451193477,-2.1207382206
 C,0,-0.7557376623,0.4233672605,-3.8586067181
 H,0,3.1060422594,2.5268510727,1.3618164629
 H,0,-1.5846228727,0.1633586889,-4.5178385586
 H,0,1.9357948234,2.0919660042,-0.3968719189
 H,0,3.2573753894,1.7202755608,-1.5273422324
 C,0,1.2917082436,1.5987585542,-3.3989216685
 C,0,0.2583443606,1.2815394306,-4.2760375358
 H,0,2.0953981504,2.273199896,-3.6957083689
 H,0,0.2404097554,1.7081030051,-5.2805536956
 H,0,-0.0548628551,-3.1828752666,-0.2640744671
 O,0,-0.4074402809,1.6734680581,1.7312897172
 H,0,-0.3532913964,-3.7628213713,5.1101844922
 H,0,-0.2164301571,-3.2227056998,3.4191626437
 H,0,2.152660788,-4.071548864,5.1947283025
 H,0,1.7330634456,-2.4547108243,4.5933396295
 H,0,2.2262980431,-3.7070375902,3.4303037341
 H,0,0.9342645785,-2.4681870237,1.7731320134
 Recover connectivity data from disk.
                           ----------------------------
                           !    Current Parameters    !
                           ! (Angstroms and Degrees)  !
 --------------------------                            --------------------------
 ! Name  Definition              Value                                          !
 --------------------------------------------------------------------------------
 ! R1    R(1,7)                  1.5135                                         !
 ! R2    R(1,125)                1.1012                                         !
 ! R3    R(1,126)                1.099                                          !
 ! R4    R(1,127)                1.1006                                         !
 ! R5    R(2,9)                  1.1015                                         !
 ! R6    R(3,6)                  0.9745                                         !
 ! R7    R(3,15)                 2.0716                                         !
 ! R8    R(4,12)                 1.0986                                         !
 ! R9    R(5,15)                 2.0728                                         !
 ! R10   R(5,58)                 0.9858                                         !
 ! R11   R(6,121)                1.8219                                         !
 ! R12   R(6,128)                1.924                                          !
 ! R13   R(7,17)                 1.4793                                         !
 ! R14   R(7,123)                1.1077                                         !
 ! R15   R(7,124)                1.0997                                         !
 ! R16   R(8,9)                  1.1041                                         !
 ! R17   R(9,11)                 1.0996                                         !
 ! R18   R(9,19)                 1.5304                                         !
 ! R19   R(10,12)                1.1002                                         !
 ! R20   R(12,13)                1.1033                                         !
 ! R21   R(12,23)                1.5313                                         !
 ! R22   R(14,18)                1.1033                                         !
 ! R23   R(15,24)                2.3189                                         !
 ! R24   R(15,32)                1.8296                                         !
 ! R25   R(15,39)                2.0637                                         !
 ! R26   R(16,22)                1.1006                                         !
 ! R27   R(17,18)                1.4751                                         !
 ! R28   R(17,30)                1.482                                          !
 ! R29   R(18,25)                1.103                                          !
 ! R30   R(18,38)                1.4974                                         !
 ! R31   R(19,22)                1.5343                                         !
 ! R32   R(19,24)                1.914                                          !
 ! R33   R(19,33)                1.5324                                         !
 ! R34   R(20,22)                1.1039                                         !
 ! R35   R(21,26)                1.0968                                         !
 ! R36   R(22,41)                1.101                                          !
 ! R37   R(23,24)                1.9065                                         !
 ! R38   R(23,26)                1.5282                                         !
 ! R39   R(23,35)                1.5299                                         !
 ! R40   R(24,45)                1.8787                                         !
 ! R41   R(26,29)                1.1031                                         !
 ! R42   R(26,43)                1.1005                                         !
 ! R43   R(27,30)                1.0964                                         !
 ! R44   R(28,40)                1.0997                                         !
 ! R45   R(30,40)                1.5216                                         !
 ! R46   R(30,42)                1.0998                                         !
 ! R47   R(31,33)                1.1032                                         !
 ! R48   R(32,59)                1.1656                                         !
 ! R49   R(33,36)                1.0949                                         !
 ! R50   R(33,47)                1.1002                                         !
 ! R51   R(34,35)                1.0944                                         !
 ! R52   R(35,37)                1.1027                                         !
 ! R53   R(35,50)                1.1011                                         !
 ! R54   R(38,39)                1.3463                                         !
 ! R55   R(38,49)                1.3907                                         !
 ! R56   R(39,48)                1.3496                                         !
 ! R57   R(40,44)                1.1004                                         !
 ! R58   R(40,46)                1.1004                                         !
 ! R59   R(45,48)                1.4967                                         !
 ! R60   R(45,52)                1.1022                                         !
 ! R61   R(45,53)                1.0982                                         !
 ! R62   R(48,54)                1.3929                                         !
 ! R63   R(49,51)                1.0905                                         !
 ! R64   R(49,55)                1.3925                                         !
 ! R65   R(54,55)                1.392                                          !
 ! R66   R(54,56)                1.0904                                         !
 ! R67   R(55,57)                1.0915                                         !
 ! R68   R(60,61)                1.0996                                         !
 ! R69   R(61,62)                1.1012                                         !
 ! R70   R(61,63)                1.1006                                         !
 ! R71   R(61,68)                1.5139                                         !
 ! R72   R(64,71)                1.1018                                         !
 ! R73   R(65,78)                2.066                                          !
 ! R74   R(65,128)               0.9797                                         !
 ! R75   R(66,75)                1.0989                                         !
 ! R76   R(67,78)                2.0807                                         !
 ! R77   R(67,121)               0.9786                                         !
 ! R78   R(68,70)                1.108                                          !
 ! R79   R(68,74)                1.0981                                         !
 ! R80   R(68,80)                1.478                                          !
 ! R81   R(69,71)                1.1031                                         !
 ! R82   R(71,73)                1.0991                                         !
 ! R83   R(71,82)                1.5307                                         !
 ! R84   R(72,75)                1.1012                                         !
 ! R85   R(75,76)                1.1033                                         !
 ! R86   R(75,86)                1.5324                                         !
 ! R87   R(77,81)                1.1024                                         !
 ! R88   R(78,87)                2.3164                                         !
 ! R89   R(78,95)                1.8272                                         !
 ! R90   R(78,102)               2.0619                                         !
 ! R91   R(79,85)                1.1002                                         !
 ! R92   R(80,81)                1.4749                                         !
 ! R93   R(80,93)                1.481                                          !
 ! R94   R(81,88)                1.1031                                         !
 ! R95   R(81,101)               1.4982                                         !
 ! R96   R(82,85)                1.5336                                         !
 ! R97   R(82,87)                1.9112                                         !
 ! R98   R(82,96)                1.5327                                         !
 ! R99   R(83,85)                1.1035                                         !
 ! R100  R(84,89)                1.0963                                         !
 ! R101  R(85,104)               1.1012                                         !
 ! R102  R(86,87)                1.9058                                         !
 ! R103  R(86,89)                1.5285                                         !
 ! R104  R(86,98)                1.5298                                         !
 ! R105  R(87,108)               1.879                                          !
 ! R106  R(89,92)                1.103                                          !
 ! R107  R(89,106)               1.1007                                         !
 ! R108  R(90,93)                1.0965                                         !
 ! R109  R(91,103)               1.0998                                         !
 ! R110  R(93,103)               1.5217                                         !
 ! R111  R(93,105)               1.1                                            !
 ! R112  R(94,96)                1.1031                                         !
 ! R113  R(95,122)               1.1657                                         !
 ! R114  R(96,99)                1.0953                                         !
 ! R115  R(96,110)               1.1003                                         !
 ! R116  R(97,98)                1.0941                                         !
 ! R117  R(98,100)               1.1027                                         !
 ! R118  R(98,113)               1.1012                                         !
 ! R119  R(101,102)              1.346                                          !
 ! R120  R(101,112)              1.3907                                         !
 ! R121  R(102,111)              1.3501                                         !
 ! R122  R(103,107)              1.1004                                         !
 ! R123  R(103,109)              1.1004                                         !
 ! R124  R(108,111)              1.4973                                         !
 ! R125  R(108,115)              1.1024                                         !
 ! R126  R(108,116)              1.0981                                         !
 ! R127  R(111,117)              1.3929                                         !
 ! R128  R(112,114)              1.0905                                         !
 ! R129  R(112,118)              1.3925                                         !
 ! R130  R(117,118)              1.392                                          !
 ! R131  R(117,119)              1.0904                                         !
 ! R132  R(118,120)              1.0915                                         !
 ! A1    A(7,1,125)            113.2272                                         !
 ! A2    A(7,1,126)            108.4452                                         !
 ! A3    A(7,1,127)            109.5163                                         !
 ! A4    A(125,1,126)          107.5887                                         !
 ! A5    A(125,1,127)          109.961                                          !
 ! A6    A(126,1,127)          107.9412                                         !
 ! A7    A(6,3,15)             103.9                                            !
 ! A8    A(15,5,58)            106.5396                                         !
 ! A9    A(3,6,121)            134.0309                                         !
 ! A10   A(3,6,128)             75.6543                                         !
 ! A11   A(121,6,128)           78.634                                          !
 ! A12   A(1,7,17)             113.1304                                         !
 ! A13   A(1,7,123)            110.9989                                         !
 ! A14   A(1,7,124)            108.5901                                         !
 ! A15   A(17,7,123)           109.0389                                         !
 ! A16   A(17,7,124)           107.3431                                         !
 ! A17   A(123,7,124)          107.5228                                         !
 ! A18   A(2,9,8)              108.0763                                         !
 ! A19   A(2,9,11)             107.9604                                         !
 ! A20   A(2,9,19)             112.8855                                         !
 ! A21   A(8,9,11)             106.9614                                         !
 ! A22   A(8,9,19)             108.3907                                         !
 ! A23   A(11,9,19)            112.3226                                         !
 ! A24   A(4,12,10)            107.1528                                         !
 ! A25   A(4,12,13)            107.9811                                         !
 ! A26   A(4,12,23)            112.1534                                         !
 ! A27   A(10,12,13)           109.3028                                         !
 ! A28   A(10,12,23)           110.9063                                         !
 ! A29   A(13,12,23)           109.2568                                         !
 ! A30   A(3,15,5)              85.0401                                         !
 ! A31   A(3,15,24)            104.2155                                         !
 ! A32   A(3,15,32)             88.8921                                         !
 ! A33   A(5,15,24)             95.47                                           !
 ! A34   A(5,15,39)             88.9572                                         !
 ! A35   A(24,15,32)            92.1201                                         !
 ! A36   A(24,15,39)            81.0207                                         !
 ! A37   A(32,15,39)            96.5318                                         !
 ! A38   A(7,17,18)            108.9798                                         !
 ! A39   A(7,17,30)            111.965                                          !
 ! A40   A(18,17,30)           110.516                                          !
 ! A41   A(14,18,17)           105.5377                                         !
 ! A42   A(14,18,25)           110.2949                                         !
 ! A43   A(14,18,38)           106.4209                                         !
 ! A44   A(17,18,25)           112.267                                          !
 ! A45   A(17,18,38)           110.9022                                         !
 ! A46   A(25,18,38)           111.111                                          !
 ! A47   A(9,19,22)            108.9896                                         !
 ! A48   A(9,19,24)            109.2437                                         !
 ! A49   A(9,19,33)            109.9383                                         !
 ! A50   A(22,19,24)           107.8138                                         !
 ! A51   A(22,19,33)           107.0708                                         !
 ! A52   A(24,19,33)           113.6567                                         !
 ! A53   A(16,22,19)           111.6197                                         !
 ! A54   A(16,22,20)           109.7405                                         !
 ! A55   A(16,22,41)           109.0822                                         !
 ! A56   A(19,22,20)           107.7599                                         !
 ! A57   A(19,22,41)           111.6589                                         !
 ! A58   A(20,22,41)           106.8493                                         !
 ! A59   A(12,23,24)           104.7824                                         !
 ! A60   A(12,23,26)           110.3786                                         !
 ! A61   A(12,23,35)           108.8466                                         !
 ! A62   A(24,23,26)           115.7766                                         !
 ! A63   A(24,23,35)           109.9871                                         !
 ! A64   A(26,23,35)           106.9434                                         !
 ! A65   A(15,24,19)           119.5665                                         !
 ! A66   A(15,24,23)           119.9474                                         !
 ! A67   A(15,24,45)            95.5965                                         !
 ! A68   A(19,24,23)           109.7303                                         !
 ! A69   A(19,24,45)           101.8535                                         !
 ! A70   A(23,24,45)           106.077                                          !
 ! A71   A(21,26,23)           113.105                                          !
 ! A72   A(21,26,29)           107.1281                                         !
 ! A73   A(21,26,43)           108.7628                                         !
 ! A74   A(23,26,29)           108.0417                                         !
 ! A75   A(23,26,43)           112.3318                                         !
 ! A76   A(29,26,43)           107.1708                                         !
 ! A77   A(17,30,27)           107.208                                          !
 ! A78   A(17,30,40)           116.5558                                         !
 ! A79   A(17,30,42)           107.0362                                         !
 ! A80   A(27,30,40)           109.7047                                         !
 ! A81   A(27,30,42)           106.1033                                         !
 ! A82   A(40,30,42)           109.7018                                         !
 ! A83   A(19,33,31)           107.5775                                         !
 ! A84   A(19,33,36)           114.3075                                         !
 ! A85   A(19,33,47)           112.1554                                         !
 ! A86   A(31,33,36)           107.3064                                         !
 ! A87   A(31,33,47)           106.5086                                         !
 ! A88   A(36,33,47)           108.5837                                         !
 ! A89   A(23,35,34)           113.2098                                         !
 ! A90   A(23,35,37)           107.923                                          !
 ! A91   A(23,35,50)           112.3498                                         !
 ! A92   A(34,35,37)           107.0889                                         !
 ! A93   A(34,35,50)           109.0061                                         !
 ! A94   A(37,35,50)           106.9328                                         !
 ! A95   A(18,38,39)           114.5225                                         !
 ! A96   A(18,38,49)           124.5955                                         !
 ! A97   A(39,38,49)           120.8513                                         !
 ! A98   A(15,39,38)           116.3892                                         !
 ! A99   A(15,39,48)           122.5056                                         !
 ! A100  A(38,39,48)           121.0736                                         !
 ! A101  A(28,40,30)           112.3906                                         !
 ! A102  A(28,40,44)           108.1222                                         !
 ! A103  A(28,40,46)           107.4231                                         !
 ! A104  A(30,40,44)           112.8636                                         !
 ! A105  A(30,40,46)           108.6377                                         !
 ! A106  A(44,40,46)           107.137                                          !
 ! A107  A(24,45,48)           108.6488                                         !
 ! A108  A(24,45,52)           104.828                                          !
 ! A109  A(24,45,53)           115.0438                                         !
 ! A110  A(48,45,52)           108.1894                                         !
 ! A111  A(48,45,53)           111.8221                                         !
 ! A112  A(52,45,53)           107.883                                          !
 ! A113  A(39,48,45)           115.3068                                         !
 ! A114  A(39,48,54)           120.444                                          !
 ! A115  A(45,48,54)           124.2492                                         !
 ! A116  A(38,49,51)           119.744                                          !
 ! A117  A(38,49,55)           118.9655                                         !
 ! A118  A(51,49,55)           121.2905                                         !
 ! A119  A(48,54,55)           119.1921                                         !
 ! A120  A(48,54,56)           119.6874                                         !
 ! A121  A(55,54,56)           121.1204                                         !
 ! A122  A(49,55,54)           119.468                                          !
 ! A123  A(49,55,57)           120.3199                                         !
 ! A124  A(54,55,57)           120.2111                                         !
 ! A125  A(60,61,62)           107.7359                                         !
 ! A126  A(60,61,63)           107.8528                                         !
 ! A127  A(60,61,68)           108.341                                          !
 ! A128  A(62,61,63)           109.9414                                         !
 ! A129  A(62,61,68)           113.2404                                         !
 ! A130  A(63,61,68)           109.5625                                         !
 ! A131  A(78,65,128)          104.3308                                         !
 ! A132  A(78,67,121)          104.3503                                         !
 ! A133  A(61,68,70)           111.0652                                         !
 ! A134  A(61,68,74)           108.3132                                         !
 ! A135  A(61,68,80)           113.2572                                         !
 ! A136  A(70,68,74)           107.727                                          !
 ! A137  A(70,68,80)           109.2919                                         !
 ! A138  A(74,68,80)           106.9534                                         !
 ! A139  A(64,71,69)           107.6739                                         !
 ! A140  A(64,71,73)           108.0194                                         !
 ! A141  A(64,71,82)           113.3214                                         !
 ! A142  A(69,71,73)           106.9079                                         !
 ! A143  A(69,71,82)           108.3288                                         !
 ! A144  A(73,71,82)           112.3013                                         !
 ! A145  A(66,75,72)           106.9825                                         !
 ! A146  A(66,75,76)           108.0604                                         !
 ! A147  A(66,75,86)           112.2542                                         !
 ! A148  A(72,75,76)           109.4435                                         !
 ! A149  A(72,75,86)           110.8371                                         !
 ! A150  A(76,75,86)           109.1825                                         !
 ! A151  A(65,78,67)            84.4823                                         !
 ! A152  A(65,78,87)           103.0185                                         !
 ! A153  A(65,78,95)            89.45                                           !
 ! A154  A(67,78,87)            96.7363                                         !
 ! A155  A(67,78,102)           89.3847                                         !
 ! A156  A(87,78,95)            91.9404                                         !
 ! A157  A(87,78,102)           81.4732                                         !
 ! A158  A(95,78,102)           96.1106                                         !
 ! A159  A(68,80,81)           109.0356                                         !
 ! A160  A(68,80,93)           112.148                                          !
 ! A161  A(81,80,93)           110.5471                                         !
 ! A162  A(77,81,80)           105.5442                                         !
 ! A163  A(77,81,88)           110.0725                                         !
 ! A164  A(77,81,101)          106.5203                                         !
 ! A165  A(80,81,88)           112.2523                                         !
 ! A166  A(80,81,101)          111.1632                                         !
 ! A167  A(88,81,101)          110.9879                                         !
 ! A168  A(71,82,85)           109.1065                                         !
 ! A169  A(71,82,87)           109.5549                                         !
 ! A170  A(71,82,96)           109.9267                                         !
 ! A171  A(85,82,87)           107.6562                                         !
 ! A172  A(85,82,96)           107.1601                                         !
 ! A173  A(87,82,96)           113.3146                                         !
 ! A174  A(79,85,82)           111.5651                                         !
 ! A175  A(79,85,83)           109.7726                                         !
 ! A176  A(79,85,104)          108.9318                                         !
 ! A177  A(82,85,83)           107.8038                                         !
 ! A178  A(82,85,104)          111.7069                                         !
 ! A179  A(83,85,104)          106.9402                                         !
 ! A180  A(75,86,87)           104.7305                                         !
 ! A181  A(75,86,89)           110.6556                                         !
 ! A182  A(75,86,98)           108.8031                                         !
 ! A183  A(87,86,89)           115.5636                                         !
 ! A184  A(87,86,98)           110.1761                                         !
 ! A185  A(89,86,98)           106.8                                            !
 ! A186  A(78,87,82)           119.7209                                         !
 ! A187  A(78,87,86)           119.6177                                         !
 ! A188  A(78,87,108)           95.4914                                         !
 ! A189  A(82,87,86)           109.6974                                         !
 ! A190  A(82,87,108)          102.0391                                         !
 ! A191  A(86,87,108)          106.3503                                         !
 ! A192  A(84,89,86)           113.24                                           !
 ! A193  A(84,89,92)           107.1511                                         !
 ! A194  A(84,89,106)          108.7532                                         !
 ! A195  A(86,89,92)           108.0216                                         !
 ! A196  A(86,89,106)          112.2157                                         !
 ! A197  A(92,89,106)          107.1575                                         !
 ! A198  A(80,93,90)           107.2538                                         !
 ! A199  A(80,93,103)          116.5447                                         !
 ! A200  A(80,93,105)          107.0074                                         !
 ! A201  A(90,93,103)          109.6747                                         !
 ! A202  A(90,93,105)          106.1105                                         !
 ! A203  A(103,93,105)         109.721                                          !
 ! A204  A(82,96,94)           107.5785                                         !
 ! A205  A(82,96,99)           114.3056                                         !
 ! A206  A(82,96,110)          112.1093                                         !
 ! A207  A(94,96,99)           107.2926                                         !
 ! A208  A(94,96,110)          106.5545                                         !
 ! A209  A(99,96,110)          108.6034                                         !
 ! A210  A(86,98,97)           113.2312                                         !
 ! A211  A(86,98,100)          107.8505                                         !
 ! A212  A(86,98,113)          112.4268                                         !
 ! A213  A(97,98,100)          107.073                                          !
 ! A214  A(97,98,113)          109.0203                                         !
 ! A215  A(100,98,113)         106.8993                                         !
 ! A216  A(81,101,102)         114.637                                          !
 ! A217  A(81,101,112)         124.4793                                         !
 ! A218  A(102,101,112)        120.8452                                         !
 ! A219  A(78,102,101)         116.5872                                         !
 ! A220  A(78,102,111)         122.2556                                         !
 ! A221  A(101,102,111)        121.1273                                         !
 ! A222  A(91,103,93)          112.3578                                         !
 ! A223  A(91,103,107)         108.1124                                         !
 ! A224  A(91,103,109)         107.4134                                         !
 ! A225  A(93,103,107)         112.8925                                         !
 ! A226  A(93,103,109)         108.6643                                         !
 ! A227  A(107,103,109)        107.1333                                         !
 ! A228  A(87,108,111)         108.9144                                         !
 ! A229  A(87,108,115)         104.8133                                         !
 ! A230  A(87,108,116)         114.9764                                         !
 ! A231  A(111,108,115)        108.0721                                         !
 ! A232  A(111,108,116)        111.7896                                         !
 ! A233  A(115,108,116)        107.8374                                         !
 ! A234  A(102,111,108)        115.4148                                         !
 ! A235  A(102,111,117)        120.3713                                         !
 ! A236  A(108,111,117)        124.2132                                         !
 ! A237  A(101,112,114)        119.7716                                         !
 ! A238  A(101,112,118)        118.9465                                         !
 ! A239  A(114,112,118)        121.2817                                         !
 ! A240  A(111,117,118)        119.2169                                         !
 ! A241  A(111,117,119)        119.6773                                         !
 ! A242  A(118,117,119)        121.1055                                         !
 ! A243  A(112,118,117)        119.4823                                         !
 ! A244  A(112,118,120)        120.316                                          !
 ! A245  A(117,118,120)        120.2004                                         !
 ! A246  A(6,121,67)            85.6137                                         !
 ! A247  A(6,128,65)           133.1873                                         !
 ! A248  L(3,15,39,5,-1)       173.9972                                         !
 ! A249  L(5,15,32,3,-1)       173.9322                                         !
 ! A250  L(15,32,59,1,-1)      173.4345                                         !
 ! A251  L(65,78,102,67,-1)    173.8669                                         !
 ! A252  L(67,78,95,65,-1)     173.9323                                         !
 ! A253  L(78,95,122,1,-1)     178.225                                          !
 ! A254  L(3,15,39,5,-2)       184.7225                                         !
 ! A255  L(5,15,32,3,-2)       173.6932                                         !
 ! A256  L(15,32,59,1,-2)      180.6317                                         !
 ! A257  L(65,78,102,67,-2)    176.1584                                         !
 ! A258  L(67,78,95,65,-2)     187.5242                                         !
 ! A259  L(78,95,122,1,-2)     187.1102                                         !
 ! D1    D(125,1,7,17)         -68.2375                                         !
 ! D2    D(125,1,7,123)         54.7134                                         !
 ! D3    D(125,1,7,124)        172.7062                                         !
 ! D4    D(126,1,7,17)         172.4362                                         !
 ! D5    D(126,1,7,123)        -64.6128                                         !
 ! D6    D(126,1,7,124)         53.3799                                         !
 ! D7    D(127,1,7,17)          54.8725                                         !
 ! D8    D(127,1,7,123)        177.8235                                         !
 ! D9    D(127,1,7,124)        -64.1838                                         !
 ! D10   D(15,3,6,121)          46.8411                                         !
 ! D11   D(15,3,6,128)         104.8241                                         !
 ! D12   D(6,3,15,5)           -47.6569                                         !
 ! D13   D(6,3,15,24)           46.7431                                         !
 ! D14   D(6,3,15,32)          138.6498                                         !
 ! D15   D(6,3,39,38)         -107.3765                                         !
 ! D16   D(6,3,39,48)           68.7934                                         !
 ! D17   D(58,5,15,3)          -32.8508                                         !
 ! D18   D(58,5,15,24)        -136.6966                                         !
 ! D19   D(58,5,15,39)         142.4268                                         !
 ! D20   D(3,6,121,67)         159.0898                                         !
 ! D21   D(128,6,121,67)       102.1724                                         !
 ! D22   D(3,6,128,65)        -153.6439                                         !
 ! D23   D(121,6,128,65)       -12.0915                                         !
 ! D24   D(1,7,17,18)          178.4505                                         !
 ! D25   D(1,7,17,30)           55.8798                                         !
 ! D26   D(123,7,17,18)         54.4202                                         !
 ! D27   D(123,7,17,30)        -68.1506                                         !
 ! D28   D(124,7,17,18)        -61.776                                          !
 ! D29   D(124,7,17,30)        175.6532                                         !
 ! D30   D(2,9,19,22)           67.2533                                         !
 ! D31   D(2,9,19,24)          -50.3153                                         !
 ! D32   D(2,9,19,33)         -175.6769                                         !
 ! D33   D(8,9,19,22)          -52.4339                                         !
 ! D34   D(8,9,19,24)         -170.0025                                         !
 ! D35   D(8,9,19,33)           64.6359                                         !
 ! D36   D(11,9,19,22)        -170.3933                                         !
 ! D37   D(11,9,19,24)          72.0381                                         !
 ! D38   D(11,9,19,33)         -53.3236                                         !
 ! D39   D(4,12,23,24)         -63.652                                          !
 ! D40   D(4,12,23,26)          61.6441                                         !
 ! D41   D(4,12,23,35)         178.7279                                         !
 ! D42   D(10,12,23,24)         56.1097                                         !
 ! D43   D(10,12,23,26)       -178.5943                                         !
 ! D44   D(10,12,23,35)        -61.5105                                         !
 ! D45   D(13,12,23,24)        176.6586                                         !
 ! D46   D(13,12,23,26)        -58.0453                                         !
 ! D47   D(13,12,23,35)         59.0385                                         !
 ! D48   D(3,15,24,19)         -97.0948                                         !
 ! D49   D(3,15,24,23)          43.6904                                         !
 ! D50   D(3,15,24,45)         155.8746                                         !
 ! D51   D(5,15,24,19)         -10.8412                                         !
 ! D52   D(5,15,24,23)         129.944                                          !
 ! D53   D(5,15,24,45)        -117.8717                                         !
 ! D54   D(32,15,24,19)        173.5115                                         !
 ! D55   D(32,15,24,23)        -45.7033                                         !
 ! D56   D(32,15,24,45)         66.4809                                         !
 ! D57   D(39,15,24,19)         77.231                                          !
 ! D58   D(39,15,24,23)       -141.9838                                         !
 ! D59   D(39,15,24,45)        -29.7996                                         !
 ! D60   D(5,15,39,38)         -61.1645                                         !
 ! D61   D(5,15,39,48)         116.8083                                         !
 ! D62   D(24,15,39,38)       -156.869                                          !
 ! D63   D(24,15,39,48)         21.1037                                         !
 ! D64   D(32,15,39,38)        112.0075                                         !
 ! D65   D(32,15,39,48)        -70.0197                                         !
 ! D66   D(7,17,18,14)          55.5712                                         !
 ! D67   D(7,17,18,25)         -64.6183                                         !
 ! D68   D(7,17,18,38)         170.4226                                         !
 ! D69   D(30,17,18,14)        179.009                                          !
 ! D70   D(30,17,18,25)         58.8195                                         !
 ! D71   D(30,17,18,38)        -66.1395                                         !
 ! D72   D(7,17,30,27)         -66.0914                                         !
 ! D73   D(7,17,30,40)          57.2341                                         !
 ! D74   D(7,17,30,42)        -179.5817                                         !
 ! D75   D(18,17,30,27)        172.216                                          !
 ! D76   D(18,17,30,40)        -64.4586                                         !
 ! D77   D(18,17,30,42)         58.7257                                         !
 ! D78   D(14,18,38,39)         76.4385                                         !
 ! D79   D(14,18,38,49)       -101.5529                                         !
 ! D80   D(17,18,38,39)        -37.86                                           !
 ! D81   D(17,18,38,49)        144.1486                                         !
 ! D82   D(25,18,38,39)       -163.4688                                         !
 ! D83   D(25,18,38,49)         18.5398                                         !
 ! D84   D(9,19,22,16)         -64.9504                                         !
 ! D85   D(9,19,22,20)          55.6097                                         !
 ! D86   D(9,19,22,41)         172.6537                                         !
 ! D87   D(24,19,22,16)         53.5188                                         !
 ! D88   D(24,19,22,20)        174.0789                                         !
 ! D89   D(24,19,22,41)        -68.8771                                         !
 ! D90   D(33,19,22,16)        176.1727                                         !
 ! D91   D(33,19,22,20)        -63.2672                                         !
 ! D92   D(33,19,22,41)         53.7768                                         !
 ! D93   D(9,19,24,15)          86.8436                                         !
 ! D94   D(9,19,24,23)         -57.5662                                         !
 ! D95   D(9,19,24,45)        -169.6453                                         !
 ! D96   D(22,19,24,15)        -31.4626                                         !
 ! D97   D(22,19,24,23)       -175.8724                                         !
 ! D98   D(22,19,24,45)         72.0485                                         !
 ! D99   D(33,19,24,15)       -149.9777                                         !
 ! D100  D(33,19,24,23)         65.6125                                         !
 ! D101  D(33,19,24,45)        -46.4666                                         !
 ! D102  D(9,19,33,31)         -58.7286                                         !
 ! D103  D(9,19,33,36)          60.316                                          !
 ! D104  D(9,19,33,47)        -175.5255                                         !
 ! D105  D(22,19,33,31)         59.5325                                         !
 ! D106  D(22,19,33,36)        178.5772                                         !
 ! D107  D(22,19,33,47)        -57.2644                                         !
 ! D108  D(24,19,33,31)        178.4735                                         !
 ! D109  D(24,19,33,36)        -62.4819                                         !
 ! D110  D(24,19,33,47)         61.6765                                         !
 ! D111  D(12,23,24,15)        -52.5587                                         !
 ! D112  D(12,23,24,19)         91.6948                                         !
 ! D113  D(12,23,24,45)       -159.0081                                         !
 ! D114  D(26,23,24,15)       -174.3865                                         !
 ! D115  D(26,23,24,19)        -30.133                                          !
 ! D116  D(26,23,24,45)         79.164                                          !
 ! D117  D(35,23,24,15)         64.2802                                         !
 ! D118  D(35,23,24,19)       -151.4663                                         !
 ! D119  D(35,23,24,45)        -42.1692                                         !
 ! D120  D(12,23,26,21)        -56.618                                          !
 ! D121  D(12,23,26,29)         61.7881                                         !
 ! D122  D(12,23,26,43)        179.7875                                         !
 ! D123  D(24,23,26,21)         62.1751                                         !
 ! D124  D(24,23,26,29)       -179.4188                                         !
 ! D125  D(24,23,26,43)        -61.4194                                         !
 ! D126  D(35,23,26,21)       -174.8738                                         !
 ! D127  D(35,23,26,29)        -56.4677                                         !
 ! D128  D(35,23,26,43)         61.5317                                         !
 ! D129  D(12,23,35,34)         58.9444                                         !
 ! D130  D(12,23,35,37)        -59.3974                                         !
 ! D131  D(12,23,35,50)       -177.0394                                         !
 ! D132  D(24,23,35,34)        -55.3252                                         !
 ! D133  D(24,23,35,37)       -173.667                                          !
 ! D134  D(24,23,35,50)         68.691                                          !
 ! D135  D(26,23,35,34)        178.1951                                         !
 ! D136  D(26,23,35,37)         59.8534                                         !
 ! D137  D(26,23,35,50)        -57.7886                                         !
 ! D138  D(15,24,45,48)         41.0359                                         !
 ! D139  D(15,24,45,52)        -74.4413                                         !
 ! D140  D(15,24,45,53)        167.2443                                         !
 ! D141  D(19,24,45,48)        -80.7783                                         !
 ! D142  D(19,24,45,52)        163.7446                                         !
 ! D143  D(19,24,45,53)         45.4302                                         !
 ! D144  D(23,24,45,48)        164.4202                                         !
 ! D145  D(23,24,45,52)         48.943                                          !
 ! D146  D(23,24,45,53)        -69.3714                                         !
 ! D147  D(17,30,40,28)        -61.6993                                         !
 ! D148  D(17,30,40,44)         60.9033                                         !
 ! D149  D(17,30,40,46)        179.5688                                         !
 ! D150  D(27,30,40,28)         60.3268                                         !
 ! D151  D(27,30,40,44)       -177.0707                                         !
 ! D152  D(27,30,40,46)        -58.4051                                         !
 ! D153  D(42,30,40,28)        176.5066                                         !
 ! D154  D(42,30,40,44)        -60.8908                                         !
 ! D155  D(42,30,40,46)         57.7747                                         !
 ! D156  D(18,38,39,15)         -0.4474                                         !
 ! D157  D(18,38,39,48)       -178.4513                                         !
 ! D158  D(49,38,39,15)        177.6267                                         !
 ! D159  D(49,38,39,48)         -0.3773                                         !
 ! D160  D(18,38,49,51)         -2.3926                                         !
 ! D161  D(18,38,49,55)        177.5493                                         !
 ! D162  D(39,38,49,51)        179.7361                                         !
 ! D163  D(39,38,49,55)         -0.322                                          !
 ! D164  D(15,39,48,45)          2.8894                                         !
 ! D165  D(15,39,48,54)       -177.1266                                         !
 ! D166  D(38,39,48,45)       -179.2309                                         !
 ! D167  D(38,39,48,54)          0.7531                                         !
 ! D168  D(24,45,48,39)        -32.4027                                         !
 ! D169  D(24,45,48,54)        147.614                                          !
 ! D170  D(52,45,48,39)         80.8756                                         !
 ! D171  D(52,45,48,54)        -99.1077                                         !
 ! D172  D(53,45,48,39)       -160.4557                                         !
 ! D173  D(53,45,48,54)         19.561                                          !
 ! D174  D(39,48,54,55)         -0.4214                                         !
 ! D175  D(39,48,54,56)        179.6119                                         !
 ! D176  D(45,48,54,55)        179.5611                                         !
 ! D177  D(45,48,54,56)         -0.4056                                         !
 ! D178  D(38,49,55,54)          0.6336                                         !
 ! D179  D(38,49,55,57)       -179.7312                                         !
 ! D180  D(51,49,55,54)       -179.4255                                         !
 ! D181  D(51,49,55,57)          0.2098                                         !
 ! D182  D(48,54,55,49)         -0.2713                                         !
 ! D183  D(48,54,55,57)       -179.9069                                         !
 ! D184  D(56,54,55,49)        179.6949                                         !
 ! D185  D(56,54,55,57)          0.0593                                         !
 ! D186  D(60,61,68,70)         65.601                                          !
 ! D187  D(60,61,68,74)        -52.5096                                         !
 ! D188  D(60,61,68,80)       -170.9708                                         !
 ! D189  D(62,61,68,70)        -53.8472                                         !
 ! D190  D(62,61,68,74)       -171.9578                                         !
 ! D191  D(62,61,68,80)         69.581                                          !
 ! D192  D(63,61,68,70)       -176.9754                                         !
 ! D193  D(63,61,68,74)         64.9141                                         !
 ! D194  D(63,61,68,80)        -53.5471                                         !
 ! D195  D(128,65,78,67)        50.9206                                         !
 ! D196  D(128,65,78,87)       -44.7391                                         !
 ! D197  D(128,65,78,95)      -136.6036                                         !
 ! D198  D(128,65,102,101)     110.1298                                         !
 ! D199  D(128,65,102,111)     -65.8371                                         !
 ! D200  D(78,65,128,6)        -49.2599                                         !
 ! D201  D(121,67,78,65)        28.1134                                         !
 ! D202  D(121,67,78,87)       130.6156                                         !
 ! D203  D(121,67,78,102)     -148.045                                          !
 ! D204  D(78,67,121,6)        -97.7996                                         !
 ! D205  D(61,68,80,81)       -178.5681                                         !
 ! D206  D(61,68,80,93)        -55.7964                                         !
 ! D207  D(70,68,80,81)        -54.1705                                         !
 ! D208  D(70,68,80,93)         68.6013                                         !
 ! D209  D(74,68,80,81)         62.1862                                         !
 ! D210  D(74,68,80,93)       -175.0421                                         !
 ! D211  D(64,71,82,85)        -67.2518                                         !
 ! D212  D(64,71,82,87)         50.373                                          !
 ! D213  D(64,71,82,96)        175.5089                                         !
 ! D214  D(69,71,82,85)         52.1609                                         !
 ! D215  D(69,71,82,87)        169.7857                                         !
 ! D216  D(69,71,82,96)        -65.0784                                         !
 ! D217  D(73,71,82,85)        170.0021                                         !
 ! D218  D(73,71,82,87)        -72.3731                                         !
 ! D219  D(73,71,82,96)         52.7628                                         !
 ! D220  D(66,75,86,87)         63.4768                                         !
 ! D221  D(66,75,86,89)        -61.6889                                         !
 ! D222  D(66,75,86,98)       -178.7319                                         !
 ! D223  D(72,75,86,87)        -56.0884                                         !
 ! D224  D(72,75,86,89)        178.7459                                         !
 ! D225  D(72,75,86,98)         61.7029                                         !
 ! D226  D(76,75,86,87)       -176.7203                                         !
 ! D227  D(76,75,86,89)         58.114                                          !
 ! D228  D(76,75,86,98)        -58.929                                          !
 ! D229  D(65,78,87,82)         96.2578                                         !
 ! D230  D(65,78,87,86)        -44.1835                                         !
 ! D231  D(65,78,87,108)      -156.5149                                         !
 ! D232  D(67,78,87,82)         10.3905                                         !
 ! D233  D(67,78,87,86)       -130.0508                                         !
 ! D234  D(67,78,87,108)       117.6178                                         !
 ! D235  D(95,78,87,82)       -173.8582                                         !
 ! D236  D(95,78,87,86)         45.7005                                         !
 ! D237  D(95,78,87,108)       -66.6309                                         !
 ! D238  D(102,78,87,82)       -77.9681                                         !
 ! D239  D(102,78,87,86)       141.5906                                         !
 ! D240  D(102,78,87,108)       29.2592                                         !
 ! D241  D(67,78,102,101)       60.7471                                         !
 ! D242  D(67,78,102,111)     -117.2842                                         !
 ! D243  D(87,78,102,101)      157.6524                                         !
 ! D244  D(87,78,102,111)      -20.3789                                         !
 ! D245  D(95,78,102,101)     -111.2943                                         !
 ! D246  D(95,78,102,111)       70.6744                                         !
 ! D247  D(68,80,81,77)        -53.711                                          !
 ! D248  D(68,80,81,88)         66.204                                          !
 ! D249  D(68,80,81,101)      -168.8098                                         !
 ! D250  D(93,80,81,77)       -177.4372                                         !
 ! D251  D(93,80,81,88)        -57.5222                                         !
 ! D252  D(93,80,81,101)        67.464                                          !
 ! D253  D(68,80,93,90)         66.1392                                         !
 ! D254  D(68,80,93,103)       -57.1755                                         !
 ! D255  D(68,80,93,105)       179.6457                                         !
 ! D256  D(81,80,93,90)       -171.948                                          !
 ! D257  D(81,80,93,103)        64.7372                                         !
 ! D258  D(81,80,93,105)       -58.4416                                         !
 ! D259  D(77,81,101,102)      -77.0641                                         !
 ! D260  D(77,81,101,112)      100.6895                                         !
 ! D261  D(80,81,101,102)       37.4276                                         !
 ! D262  D(80,81,101,112)     -144.8189                                         !
 ! D263  D(88,81,101,102)      163.1205                                         !
 ! D264  D(88,81,101,112)      -19.1259                                         !
 ! D265  D(71,82,85,79)         63.4558                                         !
 ! D266  D(71,82,85,83)        -57.1393                                         !
 ! D267  D(71,82,85,104)      -174.3477                                         !
 ! D268  D(87,82,85,79)        -55.36                                           !
 ! D269  D(87,82,85,83)       -175.9552                                         !
 ! D270  D(87,82,85,104)        66.8364                                         !
 ! D271  D(96,82,85,79)       -177.5672                                         !
 ! D272  D(96,82,85,83)         61.8377                                         !
 ! D273  D(96,82,85,104)       -55.3707                                         !
 ! D274  D(71,82,87,78)        -88.2353                                         !
 ! D275  D(71,82,87,86)         55.7447                                         !
 ! D276  D(71,82,87,108)       168.2073                                         !
 ! D277  D(85,82,87,78)         30.2929                                         !
 ! D278  D(85,82,87,86)        174.273                                          !
 ! D279  D(85,82,87,108)       -73.2645                                         !
 ! D280  D(96,82,87,78)        148.609                                          !
 ! D281  D(96,82,87,86)        -67.411                                          !
 ! D282  D(96,82,87,108)        45.0516                                         !
 ! D283  D(71,82,96,94)         56.6782                                         !
 ! D284  D(71,82,96,99)        -62.3485                                         !
 ! D285  D(71,82,96,110)       173.5058                                         !
 ! D286  D(85,82,96,94)        -61.768                                          !
 ! D287  D(85,82,96,99)        179.2052                                         !
 ! D288  D(85,82,96,110)        55.0596                                         !
 ! D289  D(87,82,96,94)        179.6289                                         !
 ! D290  D(87,82,96,99)         60.6022                                         !
 ! D291  D(87,82,96,110)       -63.5435                                         !
 ! D292  D(75,86,87,78)         52.9395                                         !
 ! D293  D(75,86,87,82)        -91.0832                                         !
 ! D294  D(75,86,87,108)       159.2891                                         !
 ! D295  D(89,86,87,78)        174.9504                                         !
 ! D296  D(89,86,87,82)         30.9276                                         !
 ! D297  D(89,86,87,108)       -78.7001                                         !
 ! D298  D(98,86,87,78)        -63.9111                                         !
 ! D299  D(98,86,87,82)        152.0661                                         !
 ! D300  D(98,86,87,108)        42.4384                                         !
 ! D301  D(75,86,89,84)         57.1778                                         !
 ! D302  D(75,86,89,92)        -61.3248                                         !
 ! D303  D(75,86,89,106)      -179.2272                                         !
 ! D304  D(87,86,89,84)        -61.6092                                         !
 ! D305  D(87,86,89,92)        179.8882                                         !
 ! D306  D(87,86,89,106)        61.9858                                         !
 ! D307  D(98,86,89,84)        175.4482                                         !
 ! D308  D(98,86,89,92)         56.9456                                         !
 ! D309  D(98,86,89,106)       -60.9568                                         !
 ! D310  D(75,86,98,97)        -57.9009                                         !
 ! D311  D(75,86,98,100)        60.3859                                         !
 ! D312  D(75,86,98,113)       177.9856                                         !
 ! D313  D(87,86,98,97)         56.3845                                         !
 ! D314  D(87,86,98,100)       174.6713                                         !
 ! D315  D(87,86,98,113)       -67.729                                          !
 ! D316  D(89,86,98,97)       -177.3762                                         !
 ! D317  D(89,86,98,100)       -59.0894                                         !
 ! D318  D(89,86,98,113)        58.5103                                         !
 ! D319  D(78,87,108,111)      -40.5328                                         !
 ! D320  D(78,87,108,115)       74.9228                                         !
 ! D321  D(78,87,108,116)     -166.866                                          !
 ! D322  D(82,87,108,111)       81.4567                                         !
 ! D323  D(82,87,108,115)     -163.0876                                         !
 ! D324  D(82,87,108,116)      -44.8764                                         !
 ! D325  D(86,87,108,111)     -163.5997                                         !
 ! D326  D(86,87,108,115)      -48.1441                                         !
 ! D327  D(86,87,108,116)       70.0672                                         !
 ! D328  D(80,93,103,91)        61.5917                                         !
 ! D329  D(80,93,103,107)      -60.9948                                         !
 ! D330  D(80,93,103,109)     -179.6911                                         !
 ! D331  D(90,93,103,91)       -60.4631                                         !
 ! D332  D(90,93,103,107)      176.9504                                         !
 ! D333  D(90,93,103,109)       58.2541                                         !
 ! D334  D(105,93,103,91)     -176.6453                                         !
 ! D335  D(105,93,103,107)      60.7682                                         !
 ! D336  D(105,93,103,109)     -57.9281                                         !
 ! D337  D(81,101,102,78)        0.3278                                         !
 ! D338  D(81,101,102,111)     178.3829                                         !
 ! D339  D(112,101,102,78)    -177.5153                                         !
 ! D340  D(112,101,102,111)      0.5398                                         !
 ! D341  D(81,101,112,114)       2.6374                                         !
 ! D342  D(81,101,112,118)    -177.2043                                         !
 ! D343  D(102,101,112,114)   -179.741                                          !
 ! D344  D(102,101,112,118)      0.4173                                         !
 ! D345  D(78,102,111,108)      -3.4586                                         !
 ! D346  D(78,102,111,117)     176.852                                          !
 ! D347  D(101,102,111,108)    178.5981                                         !
 ! D348  D(101,102,111,117)     -1.0914                                         !
 ! D349  D(87,108,111,102)      32.4227                                         !
 ! D350  D(87,108,111,117)    -147.9013                                         !
 ! D351  D(115,108,111,102)    -80.912                                          !
 ! D352  D(115,108,111,117)     98.764                                          !
 ! D353  D(116,108,111,102)    160.569                                          !
 ! D354  D(116,108,111,117)    -19.7551                                         !
 ! D355  D(102,111,117,118)      0.6743                                         !
 ! D356  D(102,111,117,119)   -179.4768                                         !
 ! D357  D(108,111,117,118)   -178.9865                                         !
 ! D358  D(108,111,117,119)      0.8625                                         !
 ! D359  D(101,112,118,117)     -0.8058                                         !
 ! D360  D(101,112,118,120)    179.613                                          !
 ! D361  D(114,112,118,117)    179.355                                          !
 ! D362  D(114,112,118,120)     -0.2263                                         !
 ! D363  D(111,117,118,112)      0.2732                                         !
 ! D364  D(111,117,118,120)    179.8549                                         !
 ! D365  D(119,117,118,112)   -179.5735                                         !
 ! D366  D(119,117,118,120)      0.0082                                         !
 --------------------------------------------------------------------------------
 Stoichiometry    C40H74N4O6P2Ru2
 Framework group  C1[X(C40H74N4O6P2Ru2)]
 Deg. of freedom   378
 Full point group                 C1      NOp   1
 Largest Abelian subgroup         C1      NOp   1
 Largest concise Abelian subgroup C1      NOp   1
                         Standard orientation:                         
 ---------------------------------------------------------------------
 Center     Atomic      Atomic             Coordinates (Angstroms)
 Number     Number       Type             X           Y           Z
 ---------------------------------------------------------------------
      1          6           0       -1.151939   -3.962544    0.558182
      2          1           0       -0.285475    2.556884   -0.566992
      3          8           0       -0.716626   -1.229469   -1.043233
      4          1           0       -0.415737    1.725179   -2.900224
      5          8           0       -1.371627    0.224309    1.259597
      6          1           0       -0.142624   -0.443335   -0.997275
      7          6           0       -1.677267   -3.059907    1.653601
      8          1           0       -0.648761    4.244169   -0.110994
      9          6           0       -0.958824    3.406854   -0.760378
     10          1           0       -1.044474    0.075671   -3.019563
     11          1           0       -0.804241    3.732353   -1.799274
     12          6           0       -1.155966    1.096682   -3.414044
     13          1           0       -0.916462    1.099731   -4.491068
     14          1           0       -2.460970   -0.869383    2.684859
     15         44           0       -2.522476   -0.573076   -0.268846
     16          1           0       -2.040047    1.991904    1.398058
     17          7           0       -2.878379   -2.295915    1.250963
     18          6           0       -3.332583   -1.479429    2.392458
     19          6           0       -2.425151    3.083779   -0.464547
     20          1           0       -2.220184    3.778878    1.555518
     21          1           0       -2.023474    3.731018   -3.374958
     22          6           0       -2.595369    2.874456    1.045857
     23          6           0       -2.585689    1.606997   -3.213171
     24         15           0       -2.899822    1.448988   -1.339396
     25          1           0       -3.668596   -2.098202    3.241450
     26          6           0       -2.736201    3.011588   -3.796110
     27          1           0       -3.623581   -3.657502   -0.145643
     28          1           0       -3.649300   -4.960474    2.021939
     29          1           0       -2.538355    2.954720   -4.879845
     30          6           0       -3.968141   -3.183507    0.781035
     31          1           0       -2.970436    5.146411   -0.278619
     32          6           0       -3.385523   -1.507890   -1.583709
     33          6           0       -3.311230    4.270877   -0.856848
     34          1           0       -3.499375   -0.347028   -3.666031
     35          6           0       -3.547123    0.699401   -3.982956
     36          1           0       -3.260083    4.540575   -1.916796
     37          1           0       -3.262251    0.728784   -5.047844
     38          6           0       -4.399878   -0.517750    1.970277
     39          7           0       -4.217158    0.019045    0.749202
     40          6           0       -4.445199   -4.249772    1.756048
     41          1           0       -3.655205    2.767631    1.324412
     42          1           0       -4.811106   -2.536457    0.497572
     43          1           0       -3.755068    3.408787   -3.672244
     44          1           0       -4.851408   -3.826741    2.687131
     45          6           0       -4.766090    1.424333   -1.124998
     46          1           0       -5.254553   -4.824164    1.280705
     47          1           0       -4.365411    4.108882   -0.586736
     48          6           0       -5.083322    0.925832    0.250175
     49          6           0       -5.484656   -0.146618    2.757426
     50          1           0       -4.590436    1.045767   -3.920415
     51          1           0       -5.617569   -0.596102    3.742052
     52          1           0       -5.123787    0.677677   -1.852671
     53          1           0       -5.271474    2.375049   -1.341267
     54          6           0       -6.182402    1.338867    0.999575
     55          6           0       -6.381955    0.798364    2.266714
     56          1           0       -6.870851    2.076852    0.586881
     57          1           0       -7.238538    1.108996    2.867652
     58          1           0       -0.605686   -0.384237    1.380917
     59          8           0       -3.864640   -2.210037   -2.381266
     60          1           0       -0.538291    0.452679    4.178347
     61          6           0        0.529786    0.407224    3.921016
     62          1           0        1.102487    0.425697    4.861392
     63          1           0        0.709098   -0.540505    3.390848
     64          1           0        0.793053   -1.313438   -2.526050
     65          8           0        0.914354   -1.377227    1.294478
     66          1           0        1.469710   -3.385229   -1.458681
     67          8           0        1.033841    0.968959   -0.206259
     68          6           0        0.848822    1.569081    3.004353
     69          1           0        1.210538   -0.842763   -4.191276
     70          1           0        0.728506    2.536460    3.530913
     71          6           0        1.598314   -1.324797   -3.277970
     72          1           0        1.909416   -3.218437    0.246004
     73          1           0        1.809268   -2.372574   -3.534441
     74          1           0        0.138240    1.553386    2.167301
     75          6           0        2.245613   -3.627992   -0.719298
     76          1           0        2.317532   -4.726530   -0.647103
     77          1           0        1.582783    2.708241    0.868901
     78         44           0        2.488620   -0.139967    0.785383
     79          1           0        1.774517    1.126813   -1.965060
     80          7           0        2.204555    1.496392    2.420209
     81          6           0        2.428654    2.684342    1.575379
     82          6           0        2.854220   -0.571677   -2.832316
     83          1           0        2.163589    1.255523   -3.720493
     84          1           0        3.388514   -3.488706   -3.256466
     85          6           0        2.534038    0.924981   -2.735018
     86          6           0        3.614473   -3.058134   -1.106131
     87         15           0        3.373831   -1.167621   -1.092336
     88          1           0        2.456432    3.616605    2.164398
     89          6           0        4.091133   -3.652693   -2.431109
[...]
 Alpha virt. eigenvalues --    4.74769   4.75001   4.75380   4.75908   4.76501
 Alpha virt. eigenvalues --    4.77149   4.77332   4.77724   4.77792   4.78106
 Alpha virt. eigenvalues --    4.78536   4.79102   4.79532   4.79958   4.80174
 Alpha virt. eigenvalues --    4.80895   4.81070   4.81210   4.81800   4.82072
 Alpha virt. eigenvalues --    4.82506   4.82590   4.82999   4.83278   4.83780
 Alpha virt. eigenvalues --    4.84067   4.84229   4.84420   4.84478   4.84876
 Alpha virt. eigenvalues --    4.85141   4.85400   4.85665   4.85737   4.85865
 Alpha virt. eigenvalues --    4.85976   4.86286   4.86491   4.86734   4.87171
 Alpha virt. eigenvalues --    4.87242   4.87389   4.87620   4.87863   4.88064
 Alpha virt. eigenvalues --    4.88357   4.88600   4.88885   4.89337   4.89520
 Alpha virt. eigenvalues --    4.89671   4.89749   4.90174   4.90350   4.90733
 Alpha virt. eigenvalues --    4.90944   4.91160   4.91553   4.91721   4.91736
 Alpha virt. eigenvalues --    4.91808   4.91998   4.92591   4.92717   4.93468
 Alpha virt. eigenvalues --    4.93542   4.93660   4.93996   4.94255   4.94487
 Alpha virt. eigenvalues --    4.94592   4.94849   4.95169   4.95412   4.96088
 Alpha virt. eigenvalues --    4.96306   4.96593   4.97051   4.97073   4.97629
 Alpha virt. eigenvalues --    4.97716   4.97913   4.98049   4.98602   4.98798
 Alpha virt. eigenvalues --    4.98967   4.99175   5.00094   5.00598   5.00772
 Alpha virt. eigenvalues --    5.01171   5.01408   5.01812   5.02052   5.02237
 Alpha virt. eigenvalues --    5.02487   5.02960   5.03423   5.04282   5.04491
 Alpha virt. eigenvalues --    5.05475   5.06468   5.06662   5.06801   5.07137
 Alpha virt. eigenvalues --    5.07385   5.08000   5.08173   5.08679   5.08897
 Alpha virt. eigenvalues --    5.09095   5.09342   5.09641   5.09727   5.10176
 Alpha virt. eigenvalues --    5.10434   5.10792   5.11175   5.11318   5.11415
 Alpha virt. eigenvalues --    5.11791   5.12651   5.13259   5.13672   5.13891
 Alpha virt. eigenvalues --    5.14070   5.14396   5.14446   5.15254   5.15633
 Alpha virt. eigenvalues --    5.16261   5.16418   5.16701   5.16954   5.17447
 Alpha virt. eigenvalues --    5.17699   5.19093   5.19375   5.19489   5.20027
 Alpha virt. eigenvalues --    5.20192   5.20456   5.20634   5.21090   5.21634
 Alpha virt. eigenvalues --    5.21873   5.22578   5.22814   5.23229   5.23476
 Alpha virt. eigenvalues --    5.23623   5.23858   5.23974   5.24104   5.24743
 Alpha virt. eigenvalues --    5.24832   5.25392   5.25756   5.26064   5.26201
 Alpha virt. eigenvalues --    5.26525   5.26901   5.27408   5.27493   5.27748
 Alpha virt. eigenvalues --    5.27926   5.28320   5.28527   5.28723   5.28963
 Alpha virt. eigenvalues --    5.29345   5.29760   5.29903   5.30292   5.30572
 Alpha virt. eigenvalues --    5.30833   5.30959   5.31050   5.31635   5.31743
 Alpha virt. eigenvalues --    5.31986   5.32326   5.33293   5.33614   5.34285
 Alpha virt. eigenvalues --    5.34747   5.34757   5.35092   5.35326   5.35699
 Alpha virt. eigenvalues --    5.35993   5.36075   5.36306   5.36455   5.36521
 Alpha virt. eigenvalues --    5.37036   5.37122   5.37273   5.37574   5.37830
 Alpha virt. eigenvalues --    5.37932   5.38331   5.38545   5.38643   5.38752
 Alpha virt. eigenvalues --    5.39254   5.39394   5.39528   5.39701   5.39926
 Alpha virt. eigenvalues --    5.40330   5.40691   5.40816   5.40955   5.41044
 Alpha virt. eigenvalues --    5.41303   5.41652   5.42001   5.42329   5.42334
 Alpha virt. eigenvalues --    5.42641   5.43249   5.43278   5.43775   5.43876
 Alpha virt. eigenvalues --    5.44139   5.44325   5.44830   5.45097   5.45628
 Alpha virt. eigenvalues --    5.46091   5.46131   5.46247   5.46548   5.46647
 Alpha virt. eigenvalues --    5.47283   5.47580   5.47733   5.48076   5.48722
 Alpha virt. eigenvalues --    5.48922   5.49504   5.49724   5.49972   5.50289
 Alpha virt. eigenvalues --    5.50371   5.50786   5.50892   5.51467   5.51917
 Alpha virt. eigenvalues --    5.52053   5.52260   5.52477   5.52585   5.52887
 Alpha virt. eigenvalues --    5.53331   5.53637   5.53912   5.54117   5.54295
 Alpha virt. eigenvalues --    5.54635   5.55178   5.55417   5.55935   5.56084
 Alpha virt. eigenvalues --    5.56283   5.56606   5.56956   5.57055   5.57619
 Alpha virt. eigenvalues --    5.57886   5.58631   5.58868   5.59264   5.59552
 Alpha virt. eigenvalues --    5.59754   5.60780   5.60975   5.61041   5.61342
 Alpha virt. eigenvalues --    5.61417   5.62284   5.62747   5.62949   5.63619
 Alpha virt. eigenvalues --    5.63655   5.64156   5.64776   5.65508   5.65933
 Alpha virt. eigenvalues --    5.66639   5.67595   5.68050   5.69636   5.70169
 Alpha virt. eigenvalues --    5.70969   5.72070   5.73088   5.73753   5.74167
 Alpha virt. eigenvalues --    5.74440   5.75251   5.77263   5.78930   5.80104
 Alpha virt. eigenvalues --    5.80327   5.82789   5.83892   5.87782   5.88175
 Alpha virt. eigenvalues --    5.88881   5.89318   5.90849   5.91266   5.94762
 Alpha virt. eigenvalues --    5.95205   6.00109   6.00641   6.00899   6.01165
 Alpha virt. eigenvalues --    6.01658   6.01926   6.02003   6.02329   6.02888
 Alpha virt. eigenvalues --    6.03264   6.03602   6.04025   6.04840   6.05279
 Alpha virt. eigenvalues --    6.05338   6.05519   6.07095   6.07347   6.07990
 Alpha virt. eigenvalues --    6.08172   6.08789   6.09417   6.09771   6.10635
 Alpha virt. eigenvalues --    6.11126   6.11490   6.11838   6.12301   6.12838
 Alpha virt. eigenvalues --    6.13944   6.14135   6.14777   6.15563   6.16649
 Alpha virt. eigenvalues --    6.16869   6.17992   6.18209   6.19056   6.19653
 Alpha virt. eigenvalues --    6.20001   6.20408   6.21187   6.21537   6.22794
 Alpha virt. eigenvalues --    6.23913   6.24053   6.24848   6.25687   6.27326
 Alpha virt. eigenvalues --    6.27691   6.28647   6.29609   6.30350   6.30675
 Alpha virt. eigenvalues --    6.31691   6.32013   6.34402   6.34546   6.35719
 Alpha virt. eigenvalues --    6.36006   6.43071   6.43203   6.44874   6.45068
 Alpha virt. eigenvalues --    6.50554   6.54196   6.57581   6.59608   6.60010
 Alpha virt. eigenvalues --    6.61217   6.61973   6.66203   6.66905   6.67303
 Alpha virt. eigenvalues --    6.70255   6.73979   6.74991   6.76970   6.77503
 Alpha virt. eigenvalues --    6.78780   6.79110   6.81933   6.82916   6.84126
 Alpha virt. eigenvalues --    6.86261   6.87050   6.87908   6.88873   6.91930
 Alpha virt. eigenvalues --    6.94901   6.96146   6.96980   6.97853   6.98746
 Alpha virt. eigenvalues --    6.99747   7.01196   7.08474   7.08673   7.32779
 Alpha virt. eigenvalues --    7.34589   7.39201   7.43594   7.52241   7.53411
 Alpha virt. eigenvalues --    7.55945   7.65308   8.78552   8.80189   9.86496
 Alpha virt. eigenvalues --    9.87383  10.02672  10.06248  10.14746  10.21141
 Alpha virt. eigenvalues --   10.98652  10.99165  12.31258  12.32385  12.42535
 Alpha virt. eigenvalues --   12.43862  12.78232  12.80806  12.95191  12.96070
 Alpha virt. eigenvalues --   13.05680  13.06858  13.17482  13.21357  13.24276
 Alpha virt. eigenvalues --   13.26922  13.30573  13.33982  13.38175  13.51686
 Alpha virt. eigenvalues --   13.56411  13.57723  13.68233  13.69189  13.69975
 Alpha virt. eigenvalues --   13.72371  13.80644  13.82869  13.88182  13.89442
 Alpha virt. eigenvalues --   13.94699  13.95612  13.97969  14.00894  14.06643
 Alpha virt. eigenvalues --   14.10576  14.23977  14.30582  14.33534  14.38536
 Alpha virt. eigenvalues --   15.07928  15.08411  35.62319  35.64425  35.69819
 Alpha virt. eigenvalues --   35.69961  35.80850  35.81950  46.39036  46.39667
          Condensed to atoms (all electrons):
 Mulliken charges:
               1
     1  C   -0.375624
     2  H    0.130442
     3  O   -0.764058
     4  H    0.127968
     5  O   -0.826513
     6  H    0.302845
     7  C   -0.145253
     8  H    0.102976
     9  C   -0.387494
    10  H    0.129006
    11  H    0.121938
    12  C   -0.341652
    13  H    0.108919
    14  H    0.183377
    15  Ru   1.019449
    16  H    0.159404
    17  N   -0.205123
    18  C   -0.146501
    19  C    0.025080
    20  H    0.104559
    21  H    0.120662
    22  C   -0.412207
    23  C    0.006845
    24  P    0.069050
    25  H    0.127335
    26  C   -0.337236
    27  H    0.128799
    28  H    0.112566
    29  H    0.108217
    30  C   -0.125277
    31  H    0.106876
    32  C   -0.204075
    33  C   -0.337440
    34  H    0.144044
    35  C   -0.378432
    36  H    0.123227
    37  H    0.110264
    38  C    0.115580
    39  N   -0.142695
    40  C   -0.330878
    41  H    0.122224
    42  H    0.143173
    43  H    0.112937
    44  H    0.111510
    45  C   -0.240605
    46  H    0.117457
    47  H    0.112204
    48  C    0.025991
    49  C   -0.151124
    50  H    0.117658
    51  H    0.162587
    52  H    0.171705
    53  H    0.141058
    54  C   -0.121957
    55  C   -0.137225
    56  H    0.164121
    57  H    0.163309
    58  H    0.307294
    59  O   -0.305469
    60  H    0.126270
    61  C   -0.372886
    62  H    0.117776
    63  H    0.143942
    64  H    0.132913
    65  O   -0.764854
    66  H    0.128242
    67  O   -0.815030
    68  C   -0.122189
    69  H    0.106480
    70  H    0.114831
    71  C   -0.401927
    72  H    0.123545
    73  H    0.125825
    74  H    0.126802
    75  C   -0.348172
    76  H    0.108845
    77  H    0.196383
    78  Ru   1.020089
    79  H    0.155891
    80  N   -0.203999
    81  C   -0.151354
    82  C    0.031557
    83  H    0.107661
    84  H    0.120925
    85  C   -0.412781
    86  C    0.005096
    87  P    0.068375
    88  H    0.125463
    89  C   -0.335504
    90  H    0.129635
    91  H    0.112528
    92  H    0.107831
    93  C   -0.125016
    94  H    0.106798
    95  C   -0.196273
    96  C   -0.337422
    97  H    0.143160
    98  C   -0.378159
    99  H    0.124001
   100  H    0.110303
   101  C    0.113610
   102  N   -0.140175
   103  C   -0.331412
   104  H    0.124533
   105  H    0.141047
   106  H    0.112610
   107  H    0.111581
   108  C   -0.239223
   109  H    0.117565
   110  H    0.111923
   111  C    0.027383
   112  C   -0.153876
   113  H    0.118368
   114  H    0.162598
   115  H    0.172301
   116  H    0.140851
   117  C   -0.121161
   118  C   -0.137289
   119  H    0.164051
   120  H    0.163113
   121  H    0.299350
   122  O   -0.302915
   123  H    0.115955
   124  H    0.144611
   125  H    0.117151
   126  H    0.128024
   127  H    0.138604
   128  H    0.299402
 Sum of Mulliken charges =  -0.00000
 Mulliken charges with hydrogens summed into heavy atoms:
               1
     1  C    0.008156
     3  O   -0.461213
     5  O   -0.519219
     7  C    0.115313
     9  C   -0.032137
    12  C    0.024240
    15  Ru   1.019449
    17  N   -0.205123
    18  C    0.164210
    19  C    0.025080
    22  C   -0.026020
    23  C    0.006845
    24  P    0.069050
    26  C    0.004580
    30  C    0.146695
    32  C   -0.204075
    33  C    0.004868
    35  C   -0.006466
    38  C    0.115580
    39  N   -0.142695
    40  C    0.010655
    45  C    0.072158
    48  C    0.025991
    49  C    0.011463
    54  C    0.042164
    55  C    0.026084
    59  O   -0.305469
    61  C    0.015102
    65  O   -0.465452
    67  O   -0.515679
    68  C    0.119444
    71  C   -0.036709
    75  C    0.012459
    78  Ru   1.020089
    80  N   -0.203999
    81  C    0.170493
    82  C    0.031557
    85  C   -0.024697
    86  C    0.005096
    87  P    0.068375
    89  C    0.005861
    93  C    0.145665
    95  C   -0.196273
    96  C    0.005301
    98  C   -0.006328
   101  C    0.113610
   102  N   -0.140175
   103  C    0.010263
   108  C    0.073928
   111  C    0.027383
   112  C    0.008722
   117  C    0.042890
   118  C    0.025824
   122  O   -0.302915
 Electronic spatial extent (au):  <R**2>=          35211.2383
 Charge=              0.0000 electrons
 Dipole moment (field-independent basis, Debye):
    X=             -0.8783    Y=             10.0803    Z=              0.4492  Tot=             10.1284
 Quadrupole moment (field-independent basis, Debye-Ang):
   XX=           -263.5777   YY=           -349.5208   ZZ=           -363.6973
   XY=              7.2942   XZ=            -36.4432   YZ=             -1.0328
 Traceless Quadrupole moment (field-independent basis, Debye-Ang):
   XX=             62.0209   YY=            -23.9222   ZZ=            -38.0987
   XY=              7.2942   XZ=            -36.4432   YZ=             -1.0328
 Octapole moment (field-independent basis, Debye-Ang**2):
  XXX=            -75.0485  YYY=             19.0428  ZZZ=             68.1756  XYY=             46.8750
  XXY=            178.6665  XXZ=             23.6398  XZZ=            -47.1136  YZZ=             43.4651
  YYZ=             34.0991  XYZ=            122.9925
 Hexadecapole moment (field-independent basis, Debye-Ang**3):
 XXXX=         -23252.5379 YYYY=         -10527.3104 ZZZZ=          -9905.4526 XXXY=            103.3749
 XXXZ=          -1174.2915 YYYX=            414.6108 YYYZ=             32.1782 ZZZX=            -37.9645
 ZZZY=            -16.1388 XXYY=          -5674.7500 XXZZ=          -5861.2911 YYZZ=          -3557.9501
 XXYZ=            -60.6150 YYXZ=            -53.8940 ZZXY=             77.6673
 N-N= 1.082591429133D+04 E-N=-2.889250961808D+04  KE= 2.970295639269D+03
 1\1\GINC-NODE259\SP\RPBE1PBE\GenECP\C40H74N4O6P2Ru2\JS1212\28-Feb-2020
 \0\\# genecp pbe1pbe EmpiricalDispersion=GD3BJ scrf=(SMD,solvent=water
 ) geom=allcheck\\Title Card Required\\0,1\C,0,1.673818682,-3.528132061
 9,4.3652121384\H,0,-0.1888134207,-4.207708771,-2.0056979637\O,0,1.8925
 78794,-4.047886937,1.21787653\H,0,2.2120459695,-4.8040066129,-2.187283
 8745\O,0,-0.8914904003,-4.316593067,1.0686226114\H,0,1.5838466855,-3.6
 370913159,0.3899103088\C,0,0.2188099024,-3.8968614781,4.1711681725\H,0
 ,-1.4179681463,-4.7387941003,-3.1863619526\C,0,-0.5159855758,-5.052442
 3448,-2.6322986617\H,0,2.9715202997,-5.1277042441,-0.6224050079\H,0,0.
 2683005781,-5.2446883063,-3.3786805843\C,0,2.8313761829,-5.52644328,-1
 .6382184971\H,0,3.8101543194,-5.5893946102,-2.1435717129\H,0,-1.810830
 1811,-4.76364245,2.904150903\Ru,0,0.6272609679,-5.6684873005,1.4713497
 684\H,0,-1.9282446863,-5.2361610259,-0.2236172796\N,0,0.0300145368,-5.
 2810356383,3.6844565696\C,0,-1.4145321227,-5.5543254449,3.5637969995\C
 ,0,-0.8602533394,-6.3004588051,-1.8162439301\H,0,-2.9127598497,-5.6924
 272979,-1.663433563\H,0,1.4530394106,-6.8201046163,-3.668107623\C,0,-2
 .1126331938,-6.0178605023,-0.9761288848\C,0,2.1944504181,-6.9183515642
 ,-1.5958184787\P,0,0.5778360755,-6.6838085751,-0.61284935\H,0,-1.92732
 83063,-5.5307395765,4.5400429104\C,0,2.0373236356,-7.4749791691,-3.010
 323624\H,0,1.7563285241,-6.1103447827,4.5162247299\H,0,0.4528275438,-5
 .3139914598,6.5320415681\H,0,3.0427715345,-7.5681230391,-3.4544596075\
 C,0,0.6739306163,-6.2746718954,4.5756871227\H,0,-2.0539974464,-7.14502
 5156,-3.3808638728\C,0,2.0679322884,-6.6656845051,1.9982811212\C,0,-1.
 2016462043,-7.4616315881,-2.7561179755\H,0,3.3397011185,-7.5450630302,
 0.1800618604\C,0,3.1302309552,-7.8673854348,-0.8446166444\H,0,-0.38986
 59038,-7.747095967,-3.4331448561\H,0,4.0935600544,-7.8890126184,-1.380
 8364165\C,0,-1.6554365029,-6.8534934855,2.8593049629\N,0,-0.8040594101
 ,-7.1067973574,1.8475969861\C,0,0.2333258381,-6.2684947154,6.032047410
 7\H,0,-2.4760842182,-6.9258051428,-0.4703664186\H,0,0.4914472002,-7.26
 67093633,4.1373071453\H,0,1.5849443734,-8.478227254,-3.0170611636\H,0,
 -0.8394071021,-6.480582796,6.1550931412\C,0,0.1045079985,-8.3866877012
 ,0.0240917971\H,0,0.7832260559,-7.055917166,6.5691749964\H,0,-1.531555
 1665,-8.3563627648,-2.2073764084\C,0,-0.9205995708,-8.2262899497,1.102
 8254005\C,0,-2.6865328928,-7.7363759788,3.1617065835\H,0,2.7508718271,
 -8.9008665439,-0.8249663593\H,0,-3.3631375652,-7.5154262345,3.98788868
 74\H,0,1.0258802823,-8.7830309654,0.4811865851\H,0,-0.2220344177,-9.09
 72170344,-0.7469885177\C,0,-1.940138336,-9.1405167421,1.3575899994\C,0
 ,-2.8327888996,-8.8900961385,2.3958910257\H,0,-2.0266214976,-10.037791
 7188,0.7441411883\H,0,-3.6369864409,-9.5960133574,2.611067225\H,0,-0.5
 970738329,-3.4479589505,1.4298785475\O,0,3.0107240126,-7.2037718343,2.
 4228580635\H,0,-3.4163503188,-2.7875595776,1.8121577416\C,0,-3.0004333
 591,-1.8381643828,1.4450933518\H,0,-3.7402490608,-1.0477224462,1.64636
 2034\H,0,-2.0742744799,-1.6367624638,2.0046345357\H,0,3.4683295915,-3.
 0025103032,0.2643958796\O,0,0.1751152296,-1.8513101125,1.8279466071\H,
 0,3.5909494933,-1.6958546369,2.3057372474\O,0,0.432664485,-2.571688038
 3,-0.8526870273\C,0,-2.6797843688,-1.9956842978,-0.0260756951\H,0,4.77
 58387252,-3.1407907547,-0.9356480258\H,0,-3.6023935064,-2.1458701984,-
 0.6208875994\C,0,4.2594044354,-2.4405821242,-0.2575186556\H,0,2.093535
 5843,-0.8534116598,2.7242509052\H,0,4.9970087137,-2.117471508,0.490582
 7032\H,0,-2.0535646223,-2.8893146132,-0.1489693179\C,0,3.1788847246,-0
 .7191870572,2.5955114904\H,0,3.63011872,-0.4300817607,3.5598639771\H,0
 ,-1.216646962,-2.0835593101,-2.0871552672\Ru,0,0.304569476,-0.72629415
 13,0.0999752959\H,0,2.0166848172,-2.3719844106,-1.9099938346\N,0,-1.91
 97531721,-0.8569144319,-0.5829201783\C,0,-1.6889934746,-1.0897396709,-
 2.0208791466\C,0,3.7247321972,-1.2716432878,-1.0886645101\H,0,3.555131
 5313,-2.4985351342,-2.8409374571\H,0,5.5162546743,-0.3444730216,1.1261
 124921\C,0,2.903458764,-1.8231736533,-2.2605394991\C,0,3.4742512202,0.
 3669285059,1.555671369\P,0,2.5583632411,-0.2041042763,-0.0150639858\H,
 0,-2.6265818388,-1.0766728271,-2.601902019\C,0,4.9812587494,0.57148582
 15,1.4028408933\H,0,-2.6268715756,0.6219026358,0.7101187711\H,0,-4.713
 4403379,-0.1779767435,-0.474717593\H,0,5.3814874251,0.9003425722,2.376
 6521358\C,0,-2.6129124563,0.4344320816,-0.37011484\H,0,5.5032963303,-1
 .182637852,-2.2785852768\C,0,-0.0577598932,0.7774007149,1.0727987447\C
 ,0,4.8921585101,-0.479615079,-1.6877835968\H,0,1.8192604602,1.65126431
 26,2.2407020095\C,0,2.8958672301,1.6938754061,2.0507326019\H,0,5.55241
 5135,-0.0187901509,-0.9452998768\H,0,3.384162298,1.9390681016,3.008540
 538\C,0,-0.7002617217,-0.110272007,-2.5755670055\N,0,0.3101220463,0.20
 00828857,-1.7421199582\C,0,-4.0239048117,0.5489251088,-0.9282350686\H,
 0,2.5809053755,-1.02250805,-2.9443313328\H,0,-1.9760245026,1.217391523
 5,-0.8075967203\H,0,5.2224733838,1.3571446262,0.6705824686\H,0,-4.0636
 818683,0.422680798,-2.0206341378\C,0,2.3341724646,1.3260044326,-1.0824
 051632\H,0,-4.4108818371,1.5542773701,-0.7037882155\H,0,4.5493887496,0
 .299934624,-2.3846102313\C,0,1.2926637219,1.0451193477,-2.1207382206\C
 ,0,-0.7557376623,0.4233672605,-3.8586067181\H,0,3.1060422594,2.5268510
 727,1.3618164629\H,0,-1.5846228727,0.1633586889,-4.5178385586\H,0,1.93
 57948234,2.0919660042,-0.3968719189\H,0,3.2573753894,1.7202755608,-1.5
 273422324\C,0,1.2917082436,1.5987585542,-3.3989216685\C,0,0.2583443606
 ,1.2815394306,-4.2760375358\H,0,2.0953981504,2.273199896,-3.6957083689
 \H,0,0.2404097554,1.7081030051,-5.2805536956\H,0,-0.0548628551,-3.1828
 752666,-0.2640744671\O,0,-0.4074402809,1.6734680581,1.7312897172\H,0,-
 0.3532913964,-3.7628213713,5.1101844922\H,0,-0.2164301571,-3.222705699
 8,3.4191626437\H,0,2.152660788,-4.071548864,5.1947283025\H,0,1.7330634
 456,-2.4547108243,4.5933396295\H,0,2.2262980431,-3.7070375902,3.430303
 7341\H,0,0.9342645785,-2.4681870237,1.7731320134\\Version=ES64L-G16Rev
 A.03\State=1-A\HF=-3110.0287755\RMSD=3.226e-10\Dipole=-2.0252408,-1.00
 76288,-3.2805324\Quadrupole=-18.0902495,23.0473272,-4.9570776,30.81148
 9,-8.108561,-30.4952162\PG=C01 [X(C40H74N4O6P2Ru2)]\\@


 HE THAT IS UNAWARE OF HIS IGNORANCE WILL BE MISLED BY HIS KNOWLEDGE.

                                        -- WHATLEY
 Job cpu time:       3 days 13 hours 37 minutes 11.9 seconds.
 Elapsed time:       0 days  4 hours 17 minutes 33.7 seconds.
 File lengths (MBytes):  RWF=   4647 Int=      0 D2E=      0 Chk=    503 Scr=      1
 Normal termination of Gaussian 16 at Fri Feb 28 14:39:13 2020.
