 Entering Gaussian System, Link 0=g16
 Initial command:
 /cluster/chemistry/gaussian/g16/l1.exe "/scratch/js1212.751537/scratch/Gau-12298.inp" -scrdir="/scratch/js1212.751537/scratch/"
 Entering Link 1 = /cluster/chemistry/gaussian/g16/l1.exe PID=     12299.
  
 Copyright (c) 1988,1990,1992,1993,1995,1998,2003,2009,2016,
            Gaussian, Inc.  All Rights Reserved.
  
 This is part of the Gaussian(R) 16 program.  It is based on
 the Gaussian(R) 09 system (copyright 2009, Gaussian, Inc.),
 the Gaussian(R) 03 system (copyright 2003, Gaussian, Inc.),
 the Gaussian(R) 98 system (copyright 1998, Gaussian, Inc.),
 the Gaussian(R) 94 system (copyright 1995, Gaussian, Inc.),
 the Gaussian 92(TM) system (copyright 1992, Gaussian, Inc.),
 the Gaussian 90(TM) system (copyright 1990, Gaussian, Inc.),
 the Gaussian 88(TM) system (copyright 1988, Gaussian, Inc.),
 the Gaussian 86(TM) system (copyright 1986, Carnegie Mellon
 University), and the Gaussian 82(TM) system (copyright 1983,
 Carnegie Mellon University). Gaussian is a federally registered
 trademark of Gaussian, Inc.
  
 This software contains proprietary and confidential information,
 including trade secrets, belonging to Gaussian, Inc.
  
 This software is provided under written license and may be
 used, copied, transmitted, or stored only in accord with that
 written license.
  
 The following legend is applicable only to US Government
 contracts under FAR:
  
                    RESTRICTED RIGHTS LEGEND
  
 Use, reproduction and disclosure by the US Government is
 subject to restrictions as set forth in subparagraphs (a)
 and (c) of the Commercial Computer Software - Restricted
 Rights clause in FAR 52.227-19.
  
 Gaussian, Inc.
 340 Quinnipiac St., Bldg. 40, Wallingford CT 06492
  
  
 ---------------------------------------------------------------
 Warning -- This program may not be used in any manner that
 competes with the business of Gaussian, Inc. or will provide
 assistance to any competitor of Gaussian, Inc.  The licensee
 of this program is prohibited from giving any competitor of
 Gaussian, Inc. access to this program.  By using this program,
 the user acknowledges that Gaussian, Inc. is engaged in the
 business of creating and licensing software in the field of
 computational chemistry and represents and warrants to the
 licensee that it is not a competitor of Gaussian, Inc. and that
 it will not use this program in any manner prohibited above.
 ---------------------------------------------------------------
  

 Cite this work as:
 Gaussian 16, Revision A.03,
 M. J. Frisch, G. W. Trucks, H. B. Schlegel, G. E. Scuseria, 
 M. A. Robb, J. R. Cheeseman, G. Scalmani, V. Barone, 
 G. A. Petersson, H. Nakatsuji, X. Li, M. Caricato, A. V. Marenich, 
 J. Bloino, B. G. Janesko, R. Gomperts, B. Mennucci, H. P. Hratchian, 
 J. V. Ortiz, A. F. Izmaylov, J. L. Sonnenberg, D. Williams-Young, 
 F. Ding, F. Lipparini, F. Egidi, J. Goings, B. Peng, A. Petrone, 
 T. Henderson, D. Ranasinghe, V. G. Zakrzewski, J. Gao, N. Rega, 
 G. Zheng, W. Liang, M. Hada, M. Ehara, K. Toyota, R. Fukuda, 
 J. Hasegawa, M. Ishida, T. Nakajima, Y. Honda, O. Kitao, H. Nakai, 
 T. Vreven, K. Throssell, J. A. Montgomery, Jr., J. E. Peralta, 
 F. Ogliaro, M. J. Bearpark, J. J. Heyd, E. N. Brothers, K. N. Kudin, 
 V. N. Staroverov, T. A. Keith, R. Kobayashi, J. Normand, 
 K. Raghavachari, A. P. Rendell, J. C. Burant, S. S. Iyengar, 
 J. Tomasi, M. Cossi, J. M. Millam, M. Klene, C. Adamo, R. Cammi, 
 J. W. Ochterski, R. L. Martin, K. Morokuma, O. Farkas, 
 J. B. Foresman, and D. J. Fox, Gaussian, Inc., Wallingford CT, 2016.
 
 ******************************************
 Gaussian 16:  ES64L-G16RevA.03 25-Dec-2016
                24-Jun-2020 
 ******************************************
 %rwf=/scratch/js1212.751537/GAlt-Mono-T-0-GPOF.rwf
 %nosave
 %nprocshared=20
 Will use up to   20 processors via shared memory.
 %mem=3000MB
 %chk=/scratch/js1212.751537/GAlt-Mono-T-0-GPOF.chk
 ---------------------------------------------------
 # opt freq genecp pbe1pbe EmpiricalDispersion=GD3BJ
 ---------------------------------------------------
 1/18=20,19=15,26=3,38=1/1,3;
 2/9=110,12=2,17=6,18=5,40=1/2;
 3/5=7,11=2,16=1,17=8,25=1,30=1,71=1,74=-13,124=41/1,2,3;
 4//1;
 5/5=2,38=5/2;
 6/7=2,8=2,9=2,10=2,28=1/1;
 7//1,2,3,16;
 1/18=20,19=15,26=3/3(2);
 2/9=110/2;
 99//99;
 2/9=110/2;
 3/5=7,6=1,11=2,16=1,17=8,25=1,30=1,71=1,74=-13,82=7,124=41/1,2,3;
 4/5=5,16=3,69=1/1;
 5/5=2,38=5/2;
 7//1,2,3,16;
 1/18=20,19=15,26=3/3(-5);
 2/9=110/2;
 6/7=2,8=2,9=2,10=2,19=2,28=1/1;
 99/9=1/99;
 -------------------
 Title Card Required
 -------------------
 Symbolic Z-matrix:
 Charge =  0 Multiplicity = 3
 H                    -3.52147  -3.3318    1.91476 
 C                    -3.21273  -2.73924   1.04103 
 H                    -3.90599  -2.97992   0.22015 
 H                    -2.19116  -3.04829   0.76397 
 H                     1.93826  -0.69328   2.69178 
 O                    -0.16459  -2.37754   0.90223 
 H                     2.96531  -2.6073    0.75502 
 O                    -0.51143  -0.09534   2.16923 
 C                    -3.22818  -1.27357   1.41611 
 H                     3.26996   0.2976    3.34665 
 H                    -4.25213  -0.93762   1.66951 
 C                     2.88237  -0.19169   2.43768 
 H                     1.61419  -2.86521  -0.35016 
 H                     3.61834  -0.94831   2.12774 
 H                    -2.58714  -1.09775   2.29149 
 C                     2.6813   -2.59912  -0.30746 
 H                     3.27596  -3.37305  -0.82088 
 H                    -2.30473   0.98017   1.86228 
 Ru                   -0.40986  -0.62255   0.17304 
 H                     0.70035   1.43941   2.1567 
 N                    -2.67307  -0.38667   0.36774 
 C                    -2.74464   1.00794   0.85003 
 C                     2.64564   0.86733   1.36016 
 H                     2.10188   2.34881   2.81099 
 H                     4.8126   -0.98398   0.21233 
 C                     1.66058   1.91369   1.89823 
 C                     2.97237  -1.24134  -0.95698 
 P                     1.80265   0.00325  -0.10829 
 H                    -3.78248   1.37546   0.90262 
 C                     4.46192  -0.92727  -0.82616 
 H                    -3.1281   -1.53856  -1.31205 
 H                    -5.39232  -1.0493   -0.30824 
 H                     5.02152  -1.68584  -1.3984 
 C                    -3.35946  -0.53418  -0.9359 
 H                     4.21857   2.22703   1.87501 
 C                    -0.54036  -1.26267  -1.54368 
 C                     3.94788   1.59477   1.01331 
 H                     1.59523  -1.50593  -2.66402 
 C                     2.65159  -1.30784  -2.45228 
 H                     4.79263   0.92558   0.82327 
 H                     3.22919  -2.13934  -2.88826 
 C                    -1.88127   1.92541   0.03882 
 N                    -0.70686   1.38778  -0.33782 
 C                    -4.86498  -0.318    -0.93794 
 H                     1.51175   2.74169   1.18775 
 H                    -2.87726   0.17266  -1.62817 
 H                     4.72653   0.05722  -1.23858 
 H                    -5.15359   0.69064  -0.60641 
 C                     1.50175   1.40498  -1.31722 
 H                    -5.23715  -0.4403   -1.96609 
 H                     3.83783   2.26939   0.14977 
 C                     0.23022   2.12364  -0.96564 
 C                    -2.18126   3.25278  -0.24505 
 H                     2.95743  -0.39133  -2.98035 
 H                    -3.14183   3.67075   0.05806 
 H                     1.36662   0.92202  -2.29851 
 H                     2.3442    2.10582  -1.40654 
 C                    -0.0085    3.46423  -1.25873 
 C                    -1.22962   4.0301   -0.90145 
 H                     0.7578    4.05357  -1.76333 
 H                    -1.43685   5.07689  -1.13027 
 O                    -0.71029  -1.72257  -2.59914 
 

 GradGradGradGradGradGradGradGradGradGradGradGradGradGradGradGradGradGrad
 Berny optimization.
 Initialization pass.
                           ----------------------------
                           !    Initial Parameters    !
                           ! (Angstroms and Degrees)  !
 --------------------------                            --------------------------
 ! Name  Definition              Value          Derivative Info.                !
 --------------------------------------------------------------------------------
 ! R1    R(1,2)                  1.0999         estimate D2E/DX2                !
 ! R2    R(2,3)                  1.1011         estimate D2E/DX2                !
 ! R3    R(2,4)                  1.1027         estimate D2E/DX2                !
 ! R4    R(2,9)                  1.513          estimate D2E/DX2                !
 ! R5    R(5,12)                 1.0989         estimate D2E/DX2                !
 ! R6    R(6,19)                 1.9162         estimate D2E/DX2                !
 ! R7    R(7,16)                 1.0998         estimate D2E/DX2                !
 ! R8    R(8,19)                 2.0671         estimate D2E/DX2                !
 ! R9    R(9,11)                 1.107          estimate D2E/DX2                !
 ! R10   R(9,15)                 1.0992         estimate D2E/DX2                !
 ! R11   R(9,21)                 1.4812         estimate D2E/DX2                !
 ! R12   R(10,12)                1.1027         estimate D2E/DX2                !
 ! R13   R(12,14)                1.1001         estimate D2E/DX2                !
 ! R14   R(12,23)                1.5293         estimate D2E/DX2                !
 ! R15   R(13,16)                1.1006         estimate D2E/DX2                !
 ! R16   R(16,17)                1.1028         estimate D2E/DX2                !
 ! R17   R(16,27)                1.533          estimate D2E/DX2                !
 ! R18   R(18,22)                1.1041         estimate D2E/DX2                !
 ! R19   R(19,28)                2.3165         estimate D2E/DX2                !
 ! R20   R(19,36)                1.8368         estimate D2E/DX2                !
 ! R21   R(19,43)                2.0954         estimate D2E/DX2                !
 ! R22   R(20,26)                1.1017         estimate D2E/DX2                !
 ! R23   R(21,22)                1.4774         estimate D2E/DX2                !
 ! R24   R(21,34)                1.4807         estimate D2E/DX2                !
 ! R25   R(22,29)                1.1022         estimate D2E/DX2                !
 ! R26   R(22,42)                1.4984         estimate D2E/DX2                !
 ! R27   R(23,26)                1.5345         estimate D2E/DX2                !
 ! R28   R(23,28)                1.901          estimate D2E/DX2                !
 ! R29   R(23,37)                1.5314         estimate D2E/DX2                !
 ! R30   R(24,26)                1.1033         estimate D2E/DX2                !
 ! R31   R(25,30)                1.0976         estimate D2E/DX2                !
 ! R32   R(26,45)                1.1011         estimate D2E/DX2                !
 ! R33   R(27,28)                1.9072         estimate D2E/DX2                !
 ! R34   R(27,30)                1.5279         estimate D2E/DX2                !
 ! R35   R(27,39)                1.5308         estimate D2E/DX2                !
 ! R36   R(28,49)                1.8753         estimate D2E/DX2                !
 ! R37   R(30,33)                1.1027         estimate D2E/DX2                !
 ! R38   R(30,47)                1.0997         estimate D2E/DX2                !
 ! R39   R(31,34)                1.0972         estimate D2E/DX2                !
 ! R40   R(32,44)                1.0997         estimate D2E/DX2                !
 ! R41   R(34,44)                1.521          estimate D2E/DX2                !
 ! R42   R(34,46)                1.1006         estimate D2E/DX2                !
 ! R43   R(35,37)                1.1025         estimate D2E/DX2                !
 ! R44   R(36,62)                1.1638         estimate D2E/DX2                !
 ! R45   R(37,40)                1.0943         estimate D2E/DX2                !
 ! R46   R(37,51)                1.1013         estimate D2E/DX2                !
 ! R47   R(38,39)                1.0954         estimate D2E/DX2                !
 ! R48   R(39,41)                1.1023         estimate D2E/DX2                !
 ! R49   R(39,54)                1.1011         estimate D2E/DX2                !
 ! R50   R(42,43)                1.3454         estimate D2E/DX2                !
 ! R51   R(42,53)                1.3901         estimate D2E/DX2                !
 ! R52   R(43,52)                1.3468         estimate D2E/DX2                !
 ! R53   R(44,48)                1.1003         estimate D2E/DX2                !
 ! R54   R(44,50)                1.1003         estimate D2E/DX2                !
 ! R55   R(49,52)                1.5023         estimate D2E/DX2                !
 ! R56   R(49,56)                1.102          estimate D2E/DX2                !
 ! R57   R(49,57)                1.0995         estimate D2E/DX2                !
 ! R58   R(52,58)                1.3929         estimate D2E/DX2                !
 ! R59   R(53,55)                1.0905         estimate D2E/DX2                !
 ! R60   R(53,59)                1.3931         estimate D2E/DX2                !
 ! R61   R(58,59)                1.3925         estimate D2E/DX2                !
 ! R62   R(58,60)                1.0905         estimate D2E/DX2                !
 ! R63   R(59,61)                1.0914         estimate D2E/DX2                !
 ! A1    A(1,2,3)              107.3207         estimate D2E/DX2                !
 ! A2    A(1,2,4)              107.9776         estimate D2E/DX2                !
 ! A3    A(1,2,9)              108.7891         estimate D2E/DX2                !
 ! A4    A(3,2,4)              109.5558         estimate D2E/DX2                !
 ! A5    A(3,2,9)              112.9633         estimate D2E/DX2                !
 ! A6    A(4,2,9)              110.0757         estimate D2E/DX2                !
 ! A7    A(2,9,11)             111.1104         estimate D2E/DX2                !
 ! A8    A(2,9,15)             110.2697         estimate D2E/DX2                !
 ! A9    A(2,9,21)             113.6262         estimate D2E/DX2                !
 ! A10   A(11,9,15)            107.9747         estimate D2E/DX2                !
 ! A11   A(11,9,21)            109.084          estimate D2E/DX2                !
 ! A12   A(15,9,21)            104.4388         estimate D2E/DX2                !
 ! A13   A(5,12,10)            108.2963         estimate D2E/DX2                !
 ! A14   A(5,12,14)            109.026          estimate D2E/DX2                !
 ! A15   A(5,12,23)            110.245          estimate D2E/DX2                !
 ! A16   A(10,12,14)           107.5949         estimate D2E/DX2                !
 ! A17   A(10,12,23)           109.145          estimate D2E/DX2                !
 ! A18   A(14,12,23)           112.4168         estimate D2E/DX2                !
 ! A19   A(7,16,13)            106.6219         estimate D2E/DX2                !
 ! A20   A(7,16,17)            107.7754         estimate D2E/DX2                !
 ! A21   A(7,16,27)            111.5221         estimate D2E/DX2                !
 ! A22   A(13,16,17)           109.5774         estimate D2E/DX2                !
 ! A23   A(13,16,27)           112.4438         estimate D2E/DX2                !
 ! A24   A(17,16,27)           108.7796         estimate D2E/DX2                !
 ! A25   A(6,19,8)              82.6689         estimate D2E/DX2                !
 ! A26   A(6,19,28)             99.8684         estimate D2E/DX2                !
 ! A27   A(6,19,36)             92.6123         estimate D2E/DX2                !
 ! A28   A(8,19,28)             95.4692         estimate D2E/DX2                !
 ! A29   A(8,19,43)             89.0706         estimate D2E/DX2                !
 ! A30   A(28,19,36)            92.7798         estimate D2E/DX2                !
 ! A31   A(28,19,43)            81.1749         estimate D2E/DX2                !
 ! A32   A(36,19,43)            95.5328         estimate D2E/DX2                !
 ! A33   A(9,21,22)            108.4226         estimate D2E/DX2                !
 ! A34   A(9,21,34)            112.9415         estimate D2E/DX2                !
 ! A35   A(22,21,34)           111.0391         estimate D2E/DX2                !
 ! A36   A(18,22,21)           104.8481         estimate D2E/DX2                !
 ! A37   A(18,22,29)           109.8652         estimate D2E/DX2                !
 ! A38   A(18,22,42)           106.3905         estimate D2E/DX2                !
 ! A39   A(21,22,29)           112.0821         estimate D2E/DX2                !
 ! A40   A(21,22,42)           111.9221         estimate D2E/DX2                !
 ! A41   A(29,22,42)           111.3582         estimate D2E/DX2                !
 ! A42   A(12,23,26)           108.9363         estimate D2E/DX2                !
 ! A43   A(12,23,28)           107.3473         estimate D2E/DX2                !
 ! A44   A(12,23,37)           110.9096         estimate D2E/DX2                !
 ! A45   A(26,23,28)           107.2264         estimate D2E/DX2                !
 ! A46   A(26,23,37)           107.5406         estimate D2E/DX2                !
 ! A47   A(28,23,37)           114.7113         estimate D2E/DX2                !
 ! A48   A(20,26,23)           110.3781         estimate D2E/DX2                !
 ! A49   A(20,26,24)           108.9237         estimate D2E/DX2                !
 ! A50   A(20,26,45)           110.933          estimate D2E/DX2                !
 ! A51   A(23,26,24)           107.5931         estimate D2E/DX2                !
 ! A52   A(23,26,45)           111.9168         estimate D2E/DX2                !
 ! A53   A(24,26,45)           106.9362         estimate D2E/DX2                !
 ! A54   A(16,27,28)           105.8421         estimate D2E/DX2                !
 ! A55   A(16,27,30)           109.3223         estimate D2E/DX2                !
 ! A56   A(16,27,39)           109.6093         estimate D2E/DX2                !
 ! A57   A(28,27,30)           115.1932         estimate D2E/DX2                !
 ! A58   A(28,27,39)           109.5423         estimate D2E/DX2                !
 ! A59   A(30,27,39)           107.2691         estimate D2E/DX2                !
 ! A60   A(19,28,23)           116.9068         estimate D2E/DX2                !
 ! A61   A(19,28,27)           117.6156         estimate D2E/DX2                !
 ! A62   A(19,28,49)            97.2944         estimate D2E/DX2                !
 ! A63   A(23,28,27)           111.6165         estimate D2E/DX2                !
 ! A64   A(23,28,49)           103.2602         estimate D2E/DX2                !
 ! A65   A(27,28,49)           107.4161         estimate D2E/DX2                !
 ! A66   A(25,30,27)           112.4499         estimate D2E/DX2                !
 ! A67   A(25,30,33)           107.0564         estimate D2E/DX2                !
 ! A68   A(25,30,47)           108.9184         estimate D2E/DX2                !
 ! A69   A(27,30,33)           107.9924         estimate D2E/DX2                !
 ! A70   A(27,30,47)           112.7363         estimate D2E/DX2                !
 ! A71   A(33,30,47)           107.4042         estimate D2E/DX2                !
 ! A72   A(21,34,31)           107.1751         estimate D2E/DX2                !
 ! A73   A(21,34,44)           116.4798         estimate D2E/DX2                !
 ! A74   A(21,34,46)           106.6607         estimate D2E/DX2                !
 ! A75   A(31,34,44)           109.7782         estimate D2E/DX2                !
 ! A76   A(31,34,46)           106.253          estimate D2E/DX2                !
 ! A77   A(44,34,46)           109.9708         estimate D2E/DX2                !
 ! A78   A(23,37,35)           107.7075         estimate D2E/DX2                !
 ! A79   A(23,37,40)           113.9081         estimate D2E/DX2                !
 ! A80   A(23,37,51)           112.5556         estimate D2E/DX2                !
 ! A81   A(35,37,40)           107.2706         estimate D2E/DX2                !
 ! A82   A(35,37,51)           106.6233         estimate D2E/DX2                !
 ! A83   A(40,37,51)           108.3942         estimate D2E/DX2                !
 ! A84   A(27,39,38)           113.5002         estimate D2E/DX2                !
 ! A85   A(27,39,41)           108.018          estimate D2E/DX2                !
 ! A86   A(27,39,54)           111.9695         estimate D2E/DX2                !
 ! A87   A(38,39,41)           107.0043         estimate D2E/DX2                !
 ! A88   A(38,39,54)           109.0064         estimate D2E/DX2                !
 ! A89   A(41,39,54)           107.0165         estimate D2E/DX2                !
 ! A90   A(22,42,43)           114.1947         estimate D2E/DX2                !
 ! A91   A(22,42,53)           124.8102         estimate D2E/DX2                !
 ! A92   A(43,42,53)           120.8481         estimate D2E/DX2                !
 ! A93   A(19,43,42)           116.0309         estimate D2E/DX2                !
 ! A94   A(19,43,52)           122.6323         estimate D2E/DX2                !
 ! A95   A(42,43,52)           121.3005         estimate D2E/DX2                !
 ! A96   A(32,44,34)           112.2943         estimate D2E/DX2                !
 ! A97   A(32,44,48)           108.1371         estimate D2E/DX2                !
 ! A98   A(32,44,50)           107.3947         estimate D2E/DX2                !
 ! A99   A(34,44,48)           112.9261         estimate D2E/DX2                !
 ! A100  A(34,44,50)           108.6797         estimate D2E/DX2                !
 ! A101  A(48,44,50)           107.1423         estimate D2E/DX2                !
 ! A102  A(28,49,52)           110.0295         estimate D2E/DX2                !
 ! A103  A(28,49,56)           105.4339         estimate D2E/DX2                !
 ! A104  A(28,49,57)           113.9459         estimate D2E/DX2                !
 ! A105  A(52,49,56)           108.3159         estimate D2E/DX2                !
 ! A106  A(52,49,57)           111.2605         estimate D2E/DX2                !
 ! A107  A(56,49,57)           107.5157         estimate D2E/DX2                !
 ! A108  A(43,52,49)           115.8897         estimate D2E/DX2                !
 ! A109  A(43,52,58)           120.3132         estimate D2E/DX2                !
 ! A110  A(49,52,58)           123.7962         estimate D2E/DX2                !
 ! A111  A(42,53,55)           119.9529         estimate D2E/DX2                !
 ! A112  A(42,53,59)           118.7892         estimate D2E/DX2                !
 ! A113  A(55,53,59)           121.2523         estimate D2E/DX2                !
 ! A114  A(52,58,59)           119.172          estimate D2E/DX2                !
 ! A115  A(52,58,60)           119.8075         estimate D2E/DX2                !
 ! A116  A(59,58,60)           121.0205         estimate D2E/DX2                !
 ! A117  A(53,59,58)           119.5508         estimate D2E/DX2                !
 ! A118  A(53,59,61)           120.2831         estimate D2E/DX2                !
 ! A119  A(58,59,61)           120.1655         estimate D2E/DX2                !
 ! A120  L(6,19,43,8,-1)       171.7395         estimate D2E/DX2                !
 ! A121  L(8,19,36,6,-1)       175.2812         estimate D2E/DX2                !
 ! A122  L(19,36,62,3,-1)      174.6994         estimate D2E/DX2                !
 ! A123  L(6,19,43,8,-2)       180.3237         estimate D2E/DX2                !
 ! A124  L(8,19,36,6,-2)       172.4098         estimate D2E/DX2                !
 ! A125  L(19,36,62,3,-2)      180.2168         estimate D2E/DX2                !
 ! D1    D(1,2,9,11)           -63.5075         estimate D2E/DX2                !
 ! D2    D(1,2,9,15)            56.1766         estimate D2E/DX2                !
 ! D3    D(1,2,9,21)           173.0278         estimate D2E/DX2                !
 ! D4    D(3,2,9,11)            55.5508         estimate D2E/DX2                !
 ! D5    D(3,2,9,15)           175.235          estimate D2E/DX2                !
 ! D6    D(3,2,9,21)           -67.9139         estimate D2E/DX2                !
 ! D7    D(4,2,9,11)           178.3642         estimate D2E/DX2                !
 ! D8    D(4,2,9,15)           -61.9516         estimate D2E/DX2                !
 ! D9    D(4,2,9,21)            54.8995         estimate D2E/DX2                !
 ! D10   D(2,9,21,22)          179.949          estimate D2E/DX2                !
 ! D11   D(2,9,21,34)           56.4525         estimate D2E/DX2                !
 ! D12   D(11,9,21,22)          55.3856         estimate D2E/DX2                !
 ! D13   D(11,9,21,34)         -68.1109         estimate D2E/DX2                !
 ! D14   D(15,9,21,22)         -59.8458         estimate D2E/DX2                !
 ! D15   D(15,9,21,34)         176.6577         estimate D2E/DX2                !
 ! D16   D(5,12,23,26)          60.7478         estimate D2E/DX2                !
 ! D17   D(5,12,23,28)         -55.049          estimate D2E/DX2                !
 ! D18   D(5,12,23,37)         178.9227         estimate D2E/DX2                !
 ! D19   D(10,12,23,26)        -58.0835         estimate D2E/DX2                !
 ! D20   D(10,12,23,28)       -173.8802         estimate D2E/DX2                !
 ! D21   D(10,12,23,37)         60.0914         estimate D2E/DX2                !
 ! D22   D(14,12,23,26)       -177.3812         estimate D2E/DX2                !
 ! D23   D(14,12,23,28)         66.822          estimate D2E/DX2                !
 ! D24   D(14,12,23,37)        -59.2063         estimate D2E/DX2                !
 ! D25   D(7,16,27,28)         -65.8042         estimate D2E/DX2                !
 ! D26   D(7,16,27,30)          58.8336         estimate D2E/DX2                !
 ! D27   D(7,16,27,39)         176.1476         estimate D2E/DX2                !
 ! D28   D(13,16,27,28)         53.9044         estimate D2E/DX2                !
 ! D29   D(13,16,27,30)        178.5423         estimate D2E/DX2                !
 ! D30   D(13,16,27,39)        -64.1438         estimate D2E/DX2                !
 ! D31   D(17,16,27,28)        175.4638         estimate D2E/DX2                !
 ! D32   D(17,16,27,30)        -59.8984         estimate D2E/DX2                !
 ! D33   D(17,16,27,39)         57.4156         estimate D2E/DX2                !
 ! D34   D(6,19,28,23)         -89.2193         estimate D2E/DX2                !
 ! D35   D(6,19,28,27)          47.8104         estimate D2E/DX2                !
 ! D36   D(6,19,28,49)         161.8589         estimate D2E/DX2                !
 ! D37   D(8,19,28,23)          -5.7338         estimate D2E/DX2                !
 ! D38   D(8,19,28,27)         131.2958         estimate D2E/DX2                !
 ! D39   D(8,19,28,49)        -114.6556         estimate D2E/DX2                !
 ! D40   D(36,19,28,23)        177.6415         estimate D2E/DX2                !
 ! D41   D(36,19,28,27)        -45.3289         estimate D2E/DX2                !
 ! D42   D(36,19,28,49)         68.7197         estimate D2E/DX2                !
 ! D43   D(43,19,28,23)         82.4694         estimate D2E/DX2                !
 ! D44   D(43,19,28,27)       -140.501          estimate D2E/DX2                !
 ! D45   D(43,19,28,49)        -26.4524         estimate D2E/DX2                !
 ! D46   D(8,19,43,42)         -62.9899         estimate D2E/DX2                !
 ! D47   D(8,19,43,52)         114.8418         estimate D2E/DX2                !
 ! D48   D(28,19,43,42)       -158.6706         estimate D2E/DX2                !
 ! D49   D(28,19,43,52)         19.1612         estimate D2E/DX2                !
 ! D50   D(36,19,43,42)        109.3656         estimate D2E/DX2                !
 ! D51   D(36,19,43,52)        -72.8027         estimate D2E/DX2                !
 ! D52   D(9,21,22,18)          49.4941         estimate D2E/DX2                !
 ! D53   D(9,21,22,29)         -69.6449         estimate D2E/DX2                !
 ! D54   D(9,21,22,42)         164.4156         estimate D2E/DX2                !
 ! D55   D(34,21,22,18)        174.1269         estimate D2E/DX2                !
 ! D56   D(34,21,22,29)         54.9879         estimate D2E/DX2                !
 ! D57   D(34,21,22,42)        -70.9516         estimate D2E/DX2                !
 ! D58   D(9,21,34,31)         -67.1571         estimate D2E/DX2                !
 ! D59   D(9,21,34,44)          56.1858         estimate D2E/DX2                !
 ! D60   D(9,21,34,46)         179.3725         estimate D2E/DX2                !
 ! D61   D(22,21,34,31)        170.8045         estimate D2E/DX2                !
 ! D62   D(22,21,34,44)        -65.8526         estimate D2E/DX2                !
 ! D63   D(22,21,34,46)         57.3342         estimate D2E/DX2                !
 ! D64   D(18,22,42,43)         75.6531         estimate D2E/DX2                !
 ! D65   D(18,22,42,53)        -99.9526         estimate D2E/DX2                !
 ! D66   D(21,22,42,43)        -38.3198         estimate D2E/DX2                !
 ! D67   D(21,22,42,53)        146.0744         estimate D2E/DX2                !
 ! D68   D(29,22,42,43)       -164.6543         estimate D2E/DX2                !
 ! D69   D(29,22,42,53)         19.7399         estimate D2E/DX2                !
 ! D70   D(12,23,26,20)        -60.1371         estimate D2E/DX2                !
 ! D71   D(12,23,26,24)         58.5955         estimate D2E/DX2                !
 ! D72   D(12,23,26,45)        175.7882         estimate D2E/DX2                !
 ! D73   D(28,23,26,20)         55.7374         estimate D2E/DX2                !
 ! D74   D(28,23,26,24)        174.47           estimate D2E/DX2                !
 ! D75   D(28,23,26,45)        -68.3373         estimate D2E/DX2                !
 ! D76   D(37,23,26,20)        179.5876         estimate D2E/DX2                !
 ! D77   D(37,23,26,24)        -61.6798         estimate D2E/DX2                !
 ! D78   D(37,23,26,45)         55.5129         estimate D2E/DX2                !
 ! D79   D(12,23,28,19)         72.2332         estimate D2E/DX2                !
 ! D80   D(12,23,28,27)        -67.2509         estimate D2E/DX2                !
 ! D81   D(12,23,28,49)        177.652          estimate D2E/DX2                !
 ! D82   D(26,23,28,19)        -44.6902         estimate D2E/DX2                !
 ! D83   D(26,23,28,27)        175.8257         estimate D2E/DX2                !
 ! D84   D(26,23,28,49)         60.7286         estimate D2E/DX2                !
 ! D85   D(37,23,28,19)       -164.0325         estimate D2E/DX2                !
 ! D86   D(37,23,28,27)         56.4833         estimate D2E/DX2                !
 ! D87   D(37,23,28,49)        -58.6137         estimate D2E/DX2                !
 ! D88   D(12,23,37,35)        -70.2896         estimate D2E/DX2                !
 ! D89   D(12,23,37,40)         48.5555         estimate D2E/DX2                !
 ! D90   D(12,23,37,51)        172.4655         estimate D2E/DX2                !
 ! D91   D(26,23,37,35)         48.729          estimate D2E/DX2                !
 ! D92   D(26,23,37,40)        167.5741         estimate D2E/DX2                !
 ! D93   D(26,23,37,51)        -68.516          estimate D2E/DX2                !
 ! D94   D(28,23,37,35)        167.8957         estimate D2E/DX2                !
 ! D95   D(28,23,37,40)        -73.2592         estimate D2E/DX2                !
 ! D96   D(28,23,37,51)         50.6507         estimate D2E/DX2                !
 ! D97   D(16,27,28,19)        -45.3921         estimate D2E/DX2                !
 ! D98   D(16,27,28,23)         93.7782         estimate D2E/DX2                !
 ! D99   D(16,27,28,49)       -153.7094         estimate D2E/DX2                !
 ! D100  D(30,27,28,19)       -166.2954         estimate D2E/DX2                !
 ! D101  D(30,27,28,23)        -27.1251         estimate D2E/DX2                !
 ! D102  D(30,27,28,49)         85.3873         estimate D2E/DX2                !
 ! D103  D(39,27,28,19)         72.7007         estimate D2E/DX2                !
 ! D104  D(39,27,28,23)       -148.1289         estimate D2E/DX2                !
 ! D105  D(39,27,28,49)        -35.6165         estimate D2E/DX2                !
 ! D106  D(16,27,30,25)        -54.0248         estimate D2E/DX2                !
 ! D107  D(16,27,30,33)         63.8717         estimate D2E/DX2                !
 ! D108  D(16,27,30,47)       -177.6331         estimate D2E/DX2                !
 ! D109  D(28,27,30,25)         64.9638         estimate D2E/DX2                !
 ! D110  D(28,27,30,33)       -177.1397         estimate D2E/DX2                !
 ! D111  D(28,27,30,47)        -58.6446         estimate D2E/DX2                !
 ! D112  D(39,27,30,25)       -172.8035         estimate D2E/DX2                !
 ! D113  D(39,27,30,33)        -54.907          estimate D2E/DX2                !
 ! D114  D(39,27,30,47)         63.5881         estimate D2E/DX2                !
 ! D115  D(16,27,39,38)         62.7769         estimate D2E/DX2                !
 ! D116  D(16,27,39,41)        -55.6976         estimate D2E/DX2                !
 ! D117  D(16,27,39,54)       -173.2817         estimate D2E/DX2                !
 ! D118  D(28,27,39,38)        -52.9426         estimate D2E/DX2                !
 ! D119  D(28,27,39,41)       -171.4171         estimate D2E/DX2                !
 ! D120  D(28,27,39,54)         70.9988         estimate D2E/DX2                !
 ! D121  D(30,27,39,38)       -178.6298         estimate D2E/DX2                !
 ! D122  D(30,27,39,41)         62.8956         estimate D2E/DX2                !
 ! D123  D(30,27,39,54)        -54.6885         estimate D2E/DX2                !
 ! D124  D(19,28,49,52)         36.2965         estimate D2E/DX2                !
 ! D125  D(19,28,49,56)        -80.2963         estimate D2E/DX2                !
 ! D126  D(19,28,49,57)        162.0427         estimate D2E/DX2                !
 ! D127  D(23,28,49,52)        -83.6304         estimate D2E/DX2                !
 ! D128  D(23,28,49,56)        159.7768         estimate D2E/DX2                !
 ! D129  D(23,28,49,57)         42.1158         estimate D2E/DX2                !
 ! D130  D(27,28,49,52)        158.2969         estimate D2E/DX2                !
 ! D131  D(27,28,49,56)         41.7041         estimate D2E/DX2                !
 ! D132  D(27,28,49,57)        -75.9569         estimate D2E/DX2                !
 ! D133  D(21,34,44,32)        -62.3174         estimate D2E/DX2                !
 ! D134  D(21,34,44,48)         60.2787         estimate D2E/DX2                !
 ! D135  D(21,34,44,50)        179.0173         estimate D2E/DX2                !
 ! D136  D(31,34,44,32)         59.6686         estimate D2E/DX2                !
 ! D137  D(31,34,44,48)       -177.7353         estimate D2E/DX2                !
 ! D138  D(31,34,44,50)        -58.9967         estimate D2E/DX2                !
 ! D139  D(46,34,44,32)        176.2281         estimate D2E/DX2                !
 ! D140  D(46,34,44,48)        -61.1758         estimate D2E/DX2                !
 ! D141  D(46,34,44,50)         57.5628         estimate D2E/DX2                !
 ! D142  D(22,42,43,19)          4.0043         estimate D2E/DX2                !
 ! D143  D(22,42,43,52)       -173.8587         estimate D2E/DX2                !
 ! D144  D(53,42,43,19)        179.8022         estimate D2E/DX2                !
 ! D145  D(53,42,43,52)          1.9392         estimate D2E/DX2                !
 ! D146  D(22,42,53,55)         -5.2976         estimate D2E/DX2                !
 ! D147  D(22,42,53,59)        173.8519         estimate D2E/DX2                !
 ! D148  D(43,42,53,55)        179.3718         estimate D2E/DX2                !
 ! D149  D(43,42,53,59)         -1.4787         estimate D2E/DX2                !
 ! D150  D(19,43,52,49)          1.6121         estimate D2E/DX2                !
 ! D151  D(19,43,52,58)       -178.7169         estimate D2E/DX2                !
 ! D152  D(42,43,52,49)        179.3319         estimate D2E/DX2                !
 ! D153  D(42,43,52,58)         -0.9971         estimate D2E/DX2                !
 ! D154  D(28,49,52,43)        -27.9221         estimate D2E/DX2                !
 ! D155  D(28,49,52,58)        152.4197         estimate D2E/DX2                !
 ! D156  D(56,49,52,43)         86.8526         estimate D2E/DX2                !
 ! D157  D(56,49,52,58)        -92.8056         estimate D2E/DX2                !
 ! D158  D(57,49,52,43)       -155.1794         estimate D2E/DX2                !
 ! D159  D(57,49,52,58)         25.1624         estimate D2E/DX2                !
 ! D160  D(43,52,58,59)         -0.366          estimate D2E/DX2                !
 ! D161  D(43,52,58,60)        179.7258         estimate D2E/DX2                !
 ! D162  D(49,52,58,59)        179.2778         estimate D2E/DX2                !
 ! D163  D(49,52,58,60)         -0.6304         estimate D2E/DX2                !
 ! D164  D(42,53,59,58)          0.1232         estimate D2E/DX2                !
 ! D165  D(42,53,59,61)       -179.5816         estimate D2E/DX2                !
 ! D166  D(55,53,59,58)        179.2611         estimate D2E/DX2                !
 ! D167  D(55,53,59,61)         -0.4436         estimate D2E/DX2                !
 ! D168  D(52,58,59,53)          0.7744         estimate D2E/DX2                !
 ! D169  D(52,58,59,61)       -179.5205         estimate D2E/DX2                !
 ! D170  D(60,58,59,53)       -179.3185         estimate D2E/DX2                !
 ! D171  D(60,58,59,61)          0.3866         estimate D2E/DX2                !
 --------------------------------------------------------------------------------
 Trust Radius=3.00D-01 FncErr=1.00D-07 GrdErr=1.00D-06 EigMax=2.50D+02 EigMin=1.00D-04
 Number of steps in this run=    369 maximum allowed number of steps=    372.
 GradGradGradGradGradGradGradGradGradGradGradGradGradGradGradGradGradGrad

 Stoichiometry    C20H35N2O3PRu(3)
 Framework group  C1[X(C20H35N2O3PRu)]
 Deg. of freedom   180
 Full point group                 C1      NOp   1
 Largest Abelian subgroup         C1      NOp   1
 Largest concise Abelian subgroup C1      NOp   1
                         Standard orientation:                         
 ---------------------------------------------------------------------
 Center     Atomic      Atomic             Coordinates (Angstroms)
 Number     Number       Type             X           Y           Z
 ---------------------------------------------------------------------
      1          1           0       -3.519789   -3.322677    1.952369
      2          6           0       -3.211968   -2.736544    1.073992
      3          1           0       -3.905746   -2.983659    0.255466
      4          1           0       -2.190475   -3.047225    0.798476
      5          1           0        1.939389   -0.676087    2.705455
      6          8           0       -0.164090   -2.374595    0.930167
      7          1           0        2.965796   -2.604116    0.782298
      8          8           0       -0.510955   -0.083120    2.180308
      9          6           0       -3.227766   -1.268114    1.438100
     10          1           0        3.271157    0.320236    3.351873
     11          1           0       -4.251669   -0.930712    1.689758
     12          6           0        2.883089   -0.176011    2.446888
     13          1           0        1.613950   -2.870870   -0.319891
     14          1           0        3.619150   -0.934617    2.142061
     15          1           0       -2.586138   -1.085471    2.311651
     16          6           0        2.680977   -2.604013   -0.279997
     17          1           0        3.275582   -3.381512   -0.788061
     18          1           0       -2.304951    0.989297    1.866681
     19         44           0       -0.410671   -0.625218    0.188045
     20          1           0        0.700152    1.452009    2.155365
     21          7           0       -2.673834   -0.388852    0.382697
     22          6           0       -2.745641    1.009300    0.854586
     23          6           0        2.645085    0.874811    1.361649
     24          1           0        2.101785    2.366880    2.801761
     25          1           0        4.811973   -0.984118    0.226062
     26          6           0        1.659981    1.924750    1.892620
     27          6           0        2.970968   -1.251010   -0.939886
     28         15           0        1.801354   -0.000599   -0.099648
     29          1           0       -3.783599    1.376761    0.905214
     30          6           0        4.460481   -0.935334   -0.812556
     31          1           0       -3.129641   -1.553480   -1.288075
     32          1           0       -5.393310   -1.057683   -0.286232
     33          1           0        5.019974   -1.697929   -1.379526
     34          6           0       -3.361149   -0.546411   -0.919279
     35          1           0        4.217817    2.238998    1.865107
     36          6           0       -0.542196   -1.278229   -1.523735
     37          6           0        3.946747    1.600188    1.008371
     38          1           0        1.592648   -1.528961   -2.643848
     39          6           0        2.649083   -1.328841   -2.434402
     40          1           0        4.791641    0.929954    0.822703
     41          1           0        3.226711   -2.163335   -2.864584
     42          6           0       -1.883283    1.921038    0.035873
     43          7           0       -0.708927    1.381104   -0.337626
     44          6           0       -4.866763   -0.330894   -0.921791
     45          1           0        1.510255    2.747344    1.176075
     46          1           0       -2.879780    0.155432   -1.617189
     47          1           0        4.724353    0.046153   -1.232536
     48          1           0       -5.155558    0.680077   -0.597602
     49          6           0        1.498932    1.391912   -1.318809
     50          1           0       -5.239660   -0.461047   -1.948713
     51          1           0        3.835751    2.268277    0.139889
     52          6           0        0.227359    2.112642   -0.971651
     53          6           0       -2.184061    3.246118   -0.257699
     54          1           0        2.954126   -0.416180   -2.969552
     55          1           0       -3.144582    3.665936    0.043005
     56          1           0        1.363267    0.901560   -2.296352
     57          1           0        2.341012    2.092422   -1.414015
     58          6           0       -0.012162    3.450898   -1.274588
     59          6           0       -1.233255    4.018907   -0.920625
     60          1           0        0.753500    4.036770   -1.784170
     61          1           0       -1.441111    5.063866   -1.157118
     62          8           0       -0.712728   -1.746091   -2.575592
 ---------------------------------------------------------------------
 Rotational constants (GHZ):           0.2490043           0.1589358           0.1333550
 General basis read from cards:  (5D, 7F)
 ======================================================================================================
                                       Pseudopotential Parameters
 ======================================================================================================
  Center     Atomic      Valence      Angular      Power
  Number     Number     Electrons     Momentum     of R      Exponent        Coefficient   SO-Coeffient
 ======================================================================================================
    1          1
                                   No pseudopotential on this center.
    2          6
                                   No pseudopotential on this center.
    3          1
                                   No pseudopotential on this center.
    4          1
                                   No pseudopotential on this center.
    5          1
                                   No pseudopotential on this center.
    6          8
                                   No pseudopotential on this center.
    7          1
                                   No pseudopotential on this center.
    8          8
                                   No pseudopotential on this center.
    9          6
                                   No pseudopotential on this center.
   10          1
                                   No pseudopotential on this center.
   11          1
                                   No pseudopotential on this center.
   12          6
                                   No pseudopotential on this center.
   13          1
                                   No pseudopotential on this center.
   14          1
                                   No pseudopotential on this center.
   15          1
                                   No pseudopotential on this center.
   16          6
                                   No pseudopotential on this center.
   17          1
                                   No pseudopotential on this center.
   18          1
                                   No pseudopotential on this center.
   19         44           16
                                      G and up 
                                                     2        1.0000000        0.00000000    0.00000000
                                      S - G
                                                     2       11.1052690      209.82297100    0.00000000
                                                     2        5.4147450       30.65472600    0.00000000
                                      P - G
                                                     2        9.7712710      146.33618200    0.00000000
                                                     2        5.0739910       24.12787700    0.00000000
                                      D - G
                                                     2        7.6714230       67.51589700    0.00000000
                                                     2        4.1365650        9.87010400    0.00000000
                                      F - G
                                                     2       11.3600000      -28.34061600    0.00000000
                                                     2        5.6800000       -4.94462900    0.00000000
   20          1
                                   No pseudopotential on this center.
   21          7
                                   No pseudopotential on this center.
   22          6
                                   No pseudopotential on this center.
   23          6
                                   No pseudopotential on this center.
   24          1
                                   No pseudopotential on this center.
   25          1
                                   No pseudopotential on this center.
   26          6
                                   No pseudopotential on this center.
   27          6
                                   No pseudopotential on this center.
   28         15
                                   No pseudopotential on this center.
   29          1
                                   No pseudopotential on this center.
   30          6
                                   No pseudopotential on this center.
   31          1
                                   No pseudopotential on this center.
   32          1
                                   No pseudopotential on this center.
   33          1
                                   No pseudopotential on this center.
   34          6
                                   No pseudopotential on this center.
   35          1
                                   No pseudopotential on this center.
   36          6
                                   No pseudopotential on this center.
   37          6
                                   No pseudopotential on this center.
   38          1
                                   No pseudopotential on this center.
   39          6
                                   No pseudopotential on this center.
   40          1
                                   No pseudopotential on this center.
   41          1
                                   No pseudopotential on this center.
   42          6
                                   No pseudopotential on this center.
   43          7
                                   No pseudopotential on this center.
   44          6
                                   No pseudopotential on this center.
   45          1
                                   No pseudopotential on this center.
   46          1
                                   No pseudopotential on this center.
   47          1
                                   No pseudopotential on this center.
   48          1
                                   No pseudopotential on this center.
   49          6
                                   No pseudopotential on this center.
   50          1
                                   No pseudopotential on this center.
   51          1
                                   No pseudopotential on this center.
   52          6
                                   No pseudopotential on this center.
   53          6
                                   No pseudopotential on this center.
   54          1
                                   No pseudopotential on this center.
   55          1
                                   No pseudopotential on this center.
   56          1
                                   No pseudopotential on this center.
   57          1
                                   No pseudopotential on this center.
   58          6
                                   No pseudopotential on this center.
   59          6
                                   No pseudopotential on this center.
   60          1
                                   No pseudopotential on this center.
   61          1
                                   No pseudopotential on this center.
   62          8
                                   No pseudopotential on this center.
 ======================================================================================================
 There are   608 symmetry adapted cartesian basis functions of A   symmetry.
 There are   579 symmetry adapted basis functions of A   symmetry.
   579 basis functions,  1206 primitive gaussians,   608 cartesian basis functions
   113 alpha electrons      111 beta electrons
       nuclear repulsion energy      3442.1812189054 Hartrees.
 NAtoms=   62 NActive=   62 NUniq=   62 SFac= 1.00D+00 NAtFMM=   60 NAOKFM=T Big=T
 Integral buffers will be    131072 words long.
 Raffenetti 2 integral format.
 Two-electron integral symmetry is turned on.
 Nuclear repulsion after empirical dispersion term =     3442.0867796723 Hartrees.
 One-electron integrals computed using PRISM.
   1 Symmetry operations used in ECPInt.
 ECPInt:  NShTT=   38503 NPrTT=  272579 LenC2=   35777 LenP2D=  137607.
 LDataN:  DoStor=T MaxTD1= 6 Len=  172
 Number of processors reduced to  16 by ecpmxn.
 NBasis=   579 RedAO= T EigKep=  4.38D-04  NBF=   579
 NBsUse=   579 1.00D-06 EigRej= -1.00D+00 NBFU=   579
 Defaulting to unpruned grid for atomic number  44.
 ExpMin= 1.60D-02 ExpMax= 9.48D+04 ExpMxC= 3.24D+03 IAcc=3 IRadAn=         5 AccDes= 0.00D+00
 Harris functional with IExCor= 1009 and IRadAn=       5 diagonalized for initial guess.
 HarFok:  IExCor= 1009 AccDes= 0.00D+00 IRadAn=         5 IDoV= 1 UseB2=F ITyADJ=14
 ICtDFT=  3500011 ScaDFX=  1.000000  1.000000  1.000000  1.000000
 Defaulting to unpruned grid for atomic number  44.
 FoFCou: FMM=F IPFlag=           0 FMFlag=      100000 FMFlg1=        2001
         NFxFlg=           0 DoJE=T BraDBF=F KetDBF=T FulRan=T
         wScrn=  0.000000 ICntrl=       500 IOpCl=  0 I1Cent=   200000004 NGrid=           0
         NMat0=    1 NMatS0=      1 NMatT0=    0 NMatD0=    1 NMtDS0=    0 NMtDT0=    0
 Petite list used in FoFCou.
 Initial guess <Sx>= 0.0000 <Sy>= 0.0000 <Sz>= 1.0000 <S**2>= 2.0000 S= 1.0000
 Requested convergence on RMS density matrix=1.00D-08 within 128 cycles.
 Requested convergence on MAX density matrix=1.00D-06.
 Requested convergence on             energy=1.00D-06.
 No special actions if energy rises.
 Defaulting to unpruned grid for atomic number  44.
 Defaulting to unpruned grid for atomic number  44.
 Defaulting to unpruned grid for atomic number  44.
 Defaulting to unpruned grid for atomic number  44.
 Defaulting to unpruned grid for atomic number  44.
 Defaulting to unpruned grid for atomic number  44.
 Defaulting to unpruned grid for atomic number  44.
 Defaulting to unpruned grid for atomic number  44.
 Defaulting to unpruned grid for atomic number  44.
 Defaulting to unpruned grid for atomic number  44.
 Defaulting to unpruned grid for atomic number  44.
 Defaulting to unpruned grid for atomic number  44.
 Defaulting to unpruned grid for atomic number  44.
 Defaulting to unpruned grid for atomic number  44.
 Defaulting to unpruned grid for atomic number  44.
 Defaulting to unpruned grid for atomic number  44.
 Defaulting to unpruned grid for atomic number  44.
 Defaulting to unpruned grid for atomic number  44.
 Defaulting to unpruned grid for atomic number  44.
 Defaulting to unpruned grid for atomic number  44.
 EnCoef did     2 forward-backward iterations
 EnCoef did   100 forward-backward iterations
 EnCoef did     2 forward-backward iterations
 EnCoef did     2 forward-backward iterations
 EnCoef did     3 forward-backward iterations
 Restarting incremental Fock formation.
 Restarting incremental Fock formation.
 SCF Done:  E(UPBE1PBE) =  -1553.32776160     A.U. after   50 cycles
            NFock= 50  Conv=0.46D-08     -V/T= 2.0467
 <Sx>= 0.0000 <Sy>= 0.0000 <Sz>= 1.0000 <S**2>= 2.0153 S= 1.0051
 <L.S>= 0.000000000000E+00
 Annihilation of the first spin contaminant:
 S**2 before annihilation     2.0153,   after     2.0001

 **********************************************************************

            Population analysis using the SCF density.

 **********************************************************************

 Orbital symmetries:
 Alpha Orbitals:
       Occupied  (A) (A) (A) (A) (A) (A) (A) (A) (A) (A) (A) (A)
                 (A) (A) (A) (A) (A) (A) (A) (A) (A) (A) (A) (A)
                 (A) (A) (A) (A) (A) (A) (A) (A) (A) (A) (A) (A)
                 (A) (A) (A) (A) (A) (A) (A) (A) (A) (A) (A) (A)
                 (A) (A) (A) (A) (A) (A) (A) (A) (A) (A) (A) (A)
                 (A) (A) (A) (A) (A) (A) (A) (A) (A) (A) (A) (A)
                 (A) (A) (A) (A) (A) (A) (A) (A) (A) (A) (A) (A)
                 (A) (A) (A) (A) (A) (A) (A) (A) (A) (A) (A) (A)
                 (A) (A) (A) (A) (A) (A) (A) (A) (A) (A) (A) (A)
                 (A) (A) (A) (A) (A)
       Virtual   (A) (A) (A) (A) (A) (A) (A) (A) (A) (A) (A) (A)
                 (A) (A) (A) (A) (A) (A) (A) (A) (A) (A) (A) (A)
                 (A) (A) (A) (A) (A) (A) (A) (A) (A) (A) (A) (A)
                 (A) (A) (A) (A) (A) (A) (A) (A) (A) (A) (A) (A)
                 (A) (A) (A) (A) (A) (A) (A) (A) (A) (A) (A) (A)
                 (A) (A) (A) (A) (A) (A) (A) (A) (A) (A) (A) (A)
                 (A) (A) (A) (A) (A) (A) (A) (A) (A) (A) (A) (A)
                 (A) (A) (A) (A) (A) (A) (A) (A) (A) (A) (A) (A)
                 (A) (A) (A) (A) (A) (A) (A) (A) (A) (A) (A) (A)
                 (A) (A) (A) (A) (A) (A) (A) (A) (A) (A) (A) (A)
                 (A) (A) (A) (A) (A) (A) (A) (A) (A) (A) (A) (A)
                 (A) (A) (A) (A) (A) (A) (A) (A) (A) (A) (A) (A)
                 (A) (A) (A) (A) (A) (A) (A) (A) (A) (A) (A) (A)
                 (A) (A) (A) (A) (A) (A) (A) (A) (A) (A) (A) (A)
                 (A) (A) (A) (A) (A) (A) (A) (A) (A) (A) (A) (A)
                 (A) (A) (A) (A) (A) (A) (A) (A) (A) (A) (A) (A)
                 (A) (A) (A) (A) (A) (A) (A) (A) (A) (A) (A) (A)
                 (A) (A) (A) (A) (A) (A) (A) (A) (A) (A) (A) (A)
                 (A) (A) (A) (A) (A) (A) (A) (A) (A) (A) (A) (A)
                 (A) (A) (A) (A) (A) (A) (A) (A) (A) (A) (A) (A)
                 (A) (A) (A) (A) (A) (A) (A) (A) (A) (A) (A) (A)
                 (A) (A) (A) (A) (A) (A) (A) (A) (A) (A) (A) (A)
                 (A) (A) (A) (A) (A) (A) (A) (A) (A) (A) (A) (A)
                 (A) (A) (A) (A) (A) (A) (A) (A) (A) (A) (A) (A)
                 (A) (A) (A) (A) (A) (A) (A) (A) (A) (A) (A) (A)
                 (A) (A) (A) (A) (A) (A) (A) (A) (A) (A) (A) (A)
                 (A) (A) (A) (A) (A) (A) (A) (A) (A) (A) (A) (A)
                 (A) (A) (A) (A) (A) (A) (A) (A) (A) (A) (A) (A)
                 (A) (A) (A) (A) (A) (A) (A) (A) (A) (A) (A) (A)
                 (A) (A) (A) (A) (A) (A) (A) (A) (A) (A) (A) (A)
                 (A) (A) (A) (A) (A) (A) (A) (A) (A) (A) (A) (A)
                 (A) (A) (A) (A) (A) (A) (A) (A) (A) (A) (A) (A)
                 (A) (A) (A) (A) (A) (A) (A) (A) (A) (A) (A) (A)
                 (A) (A) (A) (A) (A) (A) (A) (A) (A) (A) (A) (A)
                 (A) (A) (A) (A) (A) (A) (A) (A) (A) (A) (A) (A)
                 (A) (A) (A) (A) (A) (A) (A) (A) (A) (A) (A) (A)
                 (A) (A) (A) (A) (A) (A) (A) (A) (A) (A) (A) (A)
                 (A) (A) (A) (A) (A) (A) (A) (A) (A) (A) (A) (A)
                 (A) (A) (A) (A) (A) (A) (A) (A) (A) (A)
 Beta  Orbitals:
       Occupied  (A) (A) (A) (A) (A) (A) (A) (A) (A) (A) (A) (A)
                 (A) (A) (A) (A) (A) (A) (A) (A) (A) (A) (A) (A)
                 (A) (A) (A) (A) (A) (A) (A) (A) (A) (A) (A) (A)
                 (A) (A) (A) (A) (A) (A) (A) (A) (A) (A) (A) (A)
                 (A) (A) (A) (A) (A) (A) (A) (A) (A) (A) (A) (A)
                 (A) (A) (A) (A) (A) (A) (A) (A) (A) (A) (A) (A)
                 (A) (A) (A) (A) (A) (A) (A) (A) (A) (A) (A) (A)
                 (A) (A) (A) (A) (A) (A) (A) (A) (A) (A) (A) (A)
                 (A) (A) (A) (A) (A) (A) (A) (A) (A) (A) (A) (A)
                 (A) (A) (A)
       Virtual   (A) (A) (A) (A) (A) (A) (A) (A) (A) (A) (A) (A)
                 (A) (A) (A) (A) (A) (A) (A) (A) (A) (A) (A) (A)
                 (A) (A) (A) (A) (A) (A) (A) (A) (A) (A) (A) (A)
                 (A) (A) (A) (A) (A) (A) (A) (A) (A) (A) (A) (A)
                 (A) (A) (A) (A) (A) (A) (A) (A) (A) (A) (A) (A)
                 (A) (A) (A) (A) (A) (A) (A) (A) (A) (A) (A) (A)
                 (A) (A) (A) (A) (A) (A) (A) (A) (A) (A) (A) (A)
                 (A) (A) (A) (A) (A) (A) (A) (A) (A) (A) (A) (A)
                 (A) (A) (A) (A) (A) (A) (A) (A) (A) (A) (A) (A)
                 (A) (A) (A) (A) (A) (A) (A) (A) (A) (A) (A) (A)
                 (A) (A) (A) (A) (A) (A) (A) (A) (A) (A) (A) (A)
                 (A) (A) (A) (A) (A) (A) (A) (A) (A) (A) (A) (A)
                 (A) (A) (A) (A) (A) (A) (A) (A) (A) (A) (A) (A)
                 (A) (A) (A) (A) (A) (A) (A) (A) (A) (A) (A) (A)
                 (A) (A) (A) (A) (A) (A) (A) (A) (A) (A) (A) (A)
                 (A) (A) (A) (A) (A) (A) (A) (A) (A) (A) (A) (A)
                 (A) (A) (A) (A) (A) (A) (A) (A) (A) (A) (A) (A)
                 (A) (A) (A) (A) (A) (A) (A) (A) (A) (A) (A) (A)
                 (A) (A) (A) (A) (A) (A) (A) (A) (A) (A) (A) (A)
                 (A) (A) (A) (A) (A) (A) (A) (A) (A) (A) (A) (A)
                 (A) (A) (A) (A) (A) (A) (A) (A) (A) (A) (A) (A)
                 (A) (A) (A) (A) (A) (A) (A) (A) (A) (A) (A) (A)
                 (A) (A) (A) (A) (A) (A) (A) (A) (A) (A) (A) (A)
                 (A) (A) (A) (A) (A) (A) (A) (A) (A) (A) (A) (A)
                 (A) (A) (A) (A) (A) (A) (A) (A) (A) (A) (A) (A)
                 (A) (A) (A) (A) (A) (A) (A) (A) (A) (A) (A) (A)
                 (A) (A) (A) (A) (A) (A) (A) (A) (A) (A) (A) (A)
                 (A) (A) (A) (A) (A) (A) (A) (A) (A) (A) (A) (A)
                 (A) (A) (A) (A) (A) (A) (A) (A) (A) (A) (A) (A)
                 (A) (A) (A) (A) (A) (A) (A) (A) (A) (A) (A) (A)
                 (A) (A) (A) (A) (A) (A) (A) (A) (A) (A) (A) (A)
                 (A) (A) (A) (A) (A) (A) (A) (A) (A) (A) (A) (A)
                 (A) (A) (A) (A) (A) (A) (A) (A) (A) (A) (A) (A)
                 (A) (A) (A) (A) (A) (A) (A) (A) (A) (A) (A) (A)
                 (A) (A) (A) (A) (A) (A) (A) (A) (A) (A) (A) (A)
                 (A) (A) (A) (A) (A) (A) (A) (A) (A) (A) (A) (A)
                 (A) (A) (A) (A) (A) (A) (A) (A) (A) (A) (A) (A)
                 (A) (A) (A) (A) (A) (A) (A) (A) (A) (A) (A) (A)
                 (A) (A) (A) (A) (A) (A) (A) (A) (A) (A) (A) (A)
 The electronic state is 3-A.
 Alpha  occ. eigenvalues --  -77.26511 -19.25826 -19.16848 -19.15263 -14.45116
 Alpha  occ. eigenvalues --  -14.44227 -10.31208 -10.31135 -10.30443 -10.27800
 Alpha  occ. eigenvalues --  -10.27363 -10.26911 -10.26865 -10.26702 -10.26653
 Alpha  occ. eigenvalues --  -10.26548 -10.26074 -10.24968 -10.23644 -10.23364
 Alpha  occ. eigenvalues --  -10.23146 -10.23009 -10.21461 -10.21431 -10.21143
 Alpha  occ. eigenvalues --  -10.20626  -6.64454  -4.78120  -4.77998  -4.77765
 Alpha  occ. eigenvalues --   -3.05245  -1.88565  -1.88243  -1.88043  -1.12286
 Alpha  occ. eigenvalues --   -1.02120  -0.97617  -0.88183  -0.86566  -0.86211
 Alpha  occ. eigenvalues --   -0.85588  -0.84657  -0.83365  -0.78864  -0.77899
 Alpha  occ. eigenvalues --   -0.75567  -0.71730  -0.71437  -0.70853  -0.69989
 Alpha  occ. eigenvalues --   -0.69699  -0.67367  -0.67190  -0.64214  -0.63381
 Alpha  occ. eigenvalues --   -0.58303  -0.56720  -0.56009  -0.55106  -0.54426
 Alpha  occ. eigenvalues --   -0.52928  -0.51898  -0.51036  -0.49753  -0.49275
 Alpha  occ. eigenvalues --   -0.47448  -0.46905  -0.46456  -0.46110  -0.45686
 Alpha  occ. eigenvalues --   -0.45320  -0.45114  -0.45026  -0.44269  -0.43968
 Alpha  occ. eigenvalues --   -0.43834  -0.43507  -0.42981  -0.42440  -0.41711
 Alpha  occ. eigenvalues --   -0.41064  -0.40899  -0.40188  -0.39618  -0.38935
 Alpha  occ. eigenvalues --   -0.38738  -0.38453  -0.37849  -0.37679  -0.36996
 Alpha  occ. eigenvalues --   -0.36669  -0.36283  -0.35849  -0.35357  -0.35305
 Alpha  occ. eigenvalues --   -0.34583  -0.34047  -0.33892  -0.33572  -0.33433
 Alpha  occ. eigenvalues --   -0.32593  -0.32110  -0.30939  -0.30714  -0.28825
 Alpha  occ. eigenvalues --   -0.28472  -0.28156  -0.27363  -0.27160  -0.25239
 Alpha  occ. eigenvalues --   -0.21103  -0.19451  -0.17916
 Alpha virt. eigenvalues --   -0.05270  -0.03482  -0.00087   0.00545   0.02641
 Alpha virt. eigenvalues --    0.03019   0.03433   0.03967   0.05202   0.05677
 Alpha virt. eigenvalues --    0.06591   0.06924   0.07652   0.08179   0.08466
 Alpha virt. eigenvalues --    0.09096   0.10051   0.10125   0.10197   0.10703
 Alpha virt. eigenvalues --    0.11394   0.12038   0.12181   0.12380   0.12733
 Alpha virt. eigenvalues --    0.13169   0.13513   0.14064   0.14373   0.14921
 Alpha virt. eigenvalues --    0.15087   0.15544   0.15992   0.16403   0.17042
 Alpha virt. eigenvalues --    0.17069   0.17951   0.18080   0.18450   0.18660
 Alpha virt. eigenvalues --    0.19032   0.19431   0.19738   0.19898   0.20417
 Alpha virt. eigenvalues --    0.20627   0.21236   0.21589   0.22012   0.22321
 Alpha virt. eigenvalues --    0.22448   0.22724   0.23292   0.23707   0.23767
 Alpha virt. eigenvalues --    0.24141   0.24762   0.25033   0.26136   0.26577
 Alpha virt. eigenvalues --    0.26881   0.27393   0.27701   0.27912   0.28873
 Alpha virt. eigenvalues --    0.29828   0.30243   0.31632   0.32179   0.32745
 Alpha virt. eigenvalues --    0.33823   0.34783   0.35317   0.35700   0.37244
 Alpha virt. eigenvalues --    0.38650   0.39343   0.41324   0.41803   0.42558
 Alpha virt. eigenvalues --    0.42720   0.43263   0.43398   0.44144   0.44850
 Alpha virt. eigenvalues --    0.45389   0.45622   0.47199   0.47752   0.48275
 Alpha virt. eigenvalues --    0.48812   0.48995   0.50002   0.50145   0.51103
 Alpha virt. eigenvalues --    0.51303   0.52654   0.53474   0.53963   0.54481
 Alpha virt. eigenvalues --    0.54950   0.55328   0.55645   0.56330   0.56814
 Alpha virt. eigenvalues --    0.57242   0.57578   0.57946   0.58709   0.59181
 Alpha virt. eigenvalues --    0.60261   0.60468   0.60798   0.61275   0.61959
 Alpha virt. eigenvalues --    0.62388   0.62440   0.62977   0.63035   0.63366
 Alpha virt. eigenvalues --    0.64053   0.64369   0.65023   0.65184   0.65250
 Alpha virt. eigenvalues --    0.65605   0.65867   0.66320   0.66482   0.67025
 Alpha virt. eigenvalues --    0.67209   0.67715   0.67792   0.68081   0.68152
 Alpha virt. eigenvalues --    0.68409   0.69399   0.69524   0.69592   0.69974
 Alpha virt. eigenvalues --    0.70395   0.70616   0.71201   0.71743   0.72674
 Alpha virt. eigenvalues --    0.72767   0.73465   0.73657   0.73920   0.74772
 Alpha virt. eigenvalues --    0.75407   0.75742   0.75905   0.76256   0.76996
 Alpha virt. eigenvalues --    0.77257   0.77825   0.78465   0.78595   0.79412
 Alpha virt. eigenvalues --    0.79806   0.80173   0.81066   0.81419   0.82173
 Alpha virt. eigenvalues --    0.82299   0.83477   0.83753   0.84548   0.84790
 Alpha virt. eigenvalues --    0.84990   0.85562   0.85969   0.86579   0.88065
 Alpha virt. eigenvalues --    0.88454   0.89016   0.89202   0.89786   0.90975
 Alpha virt. eigenvalues --    0.91204   0.92456   0.93062   0.94374   0.94906
 Alpha virt. eigenvalues --    0.95200   0.95786   0.96447   0.96920   0.97592
 Alpha virt. eigenvalues --    0.98358   0.99578   0.99725   1.00946   1.01200
 Alpha virt. eigenvalues --    1.01715   1.02888   1.03439   1.04615   1.05890
 Alpha virt. eigenvalues --    1.06354   1.08017   1.08297   1.09166   1.10780
 Alpha virt. eigenvalues --    1.11163   1.12027   1.13180   1.13607   1.14357
 Alpha virt. eigenvalues --    1.16287   1.17251   1.17832   1.18228   1.19949
 Alpha virt. eigenvalues --    1.21517   1.21834   1.22334   1.24280   1.25297
 Alpha virt. eigenvalues --    1.25900   1.26758   1.27318   1.28624   1.29760
 Alpha virt. eigenvalues --    1.30475   1.30586   1.30917   1.31476   1.32475
 Alpha virt. eigenvalues --    1.33134   1.33903   1.34700   1.34900   1.36044
 Alpha virt. eigenvalues --    1.36140   1.37038   1.37449   1.38353   1.38544
 Alpha virt. eigenvalues --    1.39263   1.39982   1.40849   1.40912   1.42525
 Alpha virt. eigenvalues --    1.42802   1.43375   1.43969   1.44573   1.45069
 Alpha virt. eigenvalues --    1.45510   1.45684   1.46216   1.47651   1.47842
 Alpha virt. eigenvalues --    1.48001   1.49203   1.49342   1.50376   1.50698
 Alpha virt. eigenvalues --    1.51655   1.51871   1.52638   1.52860   1.53233
 Alpha virt. eigenvalues --    1.54334   1.54599   1.54850   1.55912   1.56623
 Alpha virt. eigenvalues --    1.56860   1.57779   1.58605   1.60040   1.60813
 Alpha virt. eigenvalues --    1.61320   1.61985   1.62530   1.63036   1.63466
 Alpha virt. eigenvalues --    1.63942   1.64327   1.64478   1.65513   1.65664
 Alpha virt. eigenvalues --    1.66411   1.67161   1.67782   1.68145   1.68745
 Alpha virt. eigenvalues --    1.69316   1.69623   1.70017   1.70702   1.71012
 Alpha virt. eigenvalues --    1.71788   1.72191   1.72463   1.72894   1.73460
 Alpha virt. eigenvalues --    1.73685   1.74281   1.74398   1.74825   1.74900
 Alpha virt. eigenvalues --    1.75400   1.75992   1.76208   1.76803   1.76902
 Alpha virt. eigenvalues --    1.76977   1.77713   1.78369   1.78653   1.79130
 Alpha virt. eigenvalues --    1.79884   1.80107   1.80830   1.81205   1.82079
 Alpha virt. eigenvalues --    1.82752   1.83239   1.83495   1.84140   1.84870
 Alpha virt. eigenvalues --    1.85501   1.85714   1.86088   1.87263   1.87636
 Alpha virt. eigenvalues --    1.88318   1.88916   1.89369   1.90212   1.90663
 Alpha virt. eigenvalues --    1.90780   1.91911   1.92855   1.93588   1.94217
 Alpha virt. eigenvalues --    1.95733   1.95853   1.96918   1.97841   1.98912
 Alpha virt. eigenvalues --    1.99315   1.99564   2.00438   2.00757   2.01413
 Alpha virt. eigenvalues --    2.02116   2.02407   2.03370   2.03828   2.05071
 Alpha virt. eigenvalues --    2.05829   2.06528   2.06748   2.06871   2.07382
 Alpha virt. eigenvalues --    2.08099   2.08772   2.09605   2.10036   2.10686
 Alpha virt. eigenvalues --    2.11978   2.12391   2.14198   2.14694   2.15207
 Alpha virt. eigenvalues --    2.16253   2.17649   2.18440   2.19638   2.20562
 Alpha virt. eigenvalues --    2.22211   2.23138   2.23990   2.24463   2.25353
 Alpha virt. eigenvalues --    2.25746   2.26591   2.27604   2.27868   2.28972
 Alpha virt. eigenvalues --    2.29599   2.30666   2.31308   2.34206   2.35162
 Alpha virt. eigenvalues --    2.37497   2.38922   2.39252   2.40001   2.40664
 Alpha virt. eigenvalues --    2.41078   2.41276   2.41769   2.42633   2.43046
 Alpha virt. eigenvalues --    2.44641   2.45252   2.45600   2.46368   2.46674
 Alpha virt. eigenvalues --    2.47596   2.48118   2.48432   2.49764   2.50302
 Alpha virt. eigenvalues --    2.51101   2.51322   2.51704   2.52371   2.52734
 Alpha virt. eigenvalues --    2.53761   2.54551   2.55021   2.55879   2.56270
 Alpha virt. eigenvalues --    2.56365   2.56907   2.57820   2.58188   2.58706
 Alpha virt. eigenvalues --    2.59163   2.59738   2.60742   2.63240   2.63879
 Alpha virt. eigenvalues --    2.65716   2.66257   2.67308   2.68174   2.68664
 Alpha virt. eigenvalues --    2.69352   2.70067   2.70965   2.71523   2.72239
 Alpha virt. eigenvalues --    2.73794   2.74997   2.75589   2.76798   2.78152
 Alpha virt. eigenvalues --    2.79294   2.79891   2.81237   2.82054   2.83031
 Alpha virt. eigenvalues --    2.85062   2.86641   2.90153   2.91308   2.94562
 Alpha virt. eigenvalues --    3.00633   3.02307   3.13487   3.15024   3.17708
 Alpha virt. eigenvalues --    3.49139   3.58366  34.88221  34.98663  35.02372
 Alpha virt. eigenvalues --   46.00510
  Beta  occ. eigenvalues --  -77.26509 -19.25814 -19.14336 -19.12985 -14.45116
  Beta  occ. eigenvalues --  -14.44181 -10.31236 -10.31143 -10.30450 -10.27813
  Beta  occ. eigenvalues --  -10.27355 -10.26907 -10.26859 -10.26699 -10.26654
  Beta  occ. eigenvalues --  -10.26540 -10.26078 -10.24967 -10.23642 -10.23359
  Beta  occ. eigenvalues --  -10.23144 -10.23009 -10.21432 -10.21413 -10.21132
  Beta  occ. eigenvalues --  -10.20600  -6.64451  -4.78117  -4.77997  -4.77757
  Beta  occ. eigenvalues --   -3.04383  -1.88067  -1.87126  -1.86747  -1.12278
  Beta  occ. eigenvalues --   -1.02107  -0.97548  -0.86321  -0.85658  -0.84693
  Beta  occ. eigenvalues --   -0.83421  -0.80611  -0.79484  -0.78671  -0.77814
  Beta  occ. eigenvalues --   -0.75539  -0.71709  -0.71402  -0.70840  -0.69952
  Beta  occ. eigenvalues --   -0.69617  -0.67352  -0.67166  -0.64184  -0.63360
  Beta  occ. eigenvalues --   -0.58259  -0.56698  -0.55977  -0.55088  -0.54399
  Beta  occ. eigenvalues --   -0.52857  -0.51839  -0.50981  -0.49743  -0.49263
  Beta  occ. eigenvalues --   -0.47410  -0.46899  -0.46412  -0.46064  -0.45638
  Beta  occ. eigenvalues --   -0.45204  -0.45030  -0.44900  -0.44238  -0.43904
  Beta  occ. eigenvalues --   -0.43800  -0.43372  -0.42935  -0.42398  -0.41628
  Beta  occ. eigenvalues --   -0.40998  -0.40816  -0.40178  -0.39563  -0.38798
  Beta  occ. eigenvalues --   -0.38551  -0.38407  -0.37629  -0.37281  -0.36774
  Beta  occ. eigenvalues --   -0.36494  -0.36028  -0.35735  -0.35230  -0.34875
  Beta  occ. eigenvalues --   -0.34301  -0.33986  -0.33774  -0.33401  -0.33215
  Beta  occ. eigenvalues --   -0.32321  -0.30626  -0.28650  -0.28125  -0.27818
  Beta  occ. eigenvalues --   -0.26852  -0.25907  -0.24440  -0.23768  -0.19020
  Beta  occ. eigenvalues --   -0.16007
  Beta virt. eigenvalues --   -0.05601  -0.04860  -0.03453  -0.02705   0.00415
  Beta virt. eigenvalues --    0.00644   0.02818   0.03228   0.03833   0.04126
  Beta virt. eigenvalues --    0.05324   0.05909   0.06673   0.06972   0.07857
  Beta virt. eigenvalues --    0.08220   0.08521   0.09382   0.10095   0.10179
  Beta virt. eigenvalues --    0.10247   0.10722   0.11431   0.12054   0.12267
  Beta virt. eigenvalues --    0.12383   0.12799   0.13305   0.13534   0.14218
  Beta virt. eigenvalues --    0.14425   0.14953   0.15167   0.15589   0.16050
  Beta virt. eigenvalues --    0.16464   0.17117   0.17226   0.18083   0.18108
  Beta virt. eigenvalues --    0.18568   0.18846   0.19089   0.19476   0.19776
  Beta virt. eigenvalues --    0.19932   0.20475   0.20681   0.21316   0.21728
  Beta virt. eigenvalues --    0.22204   0.22512   0.22533   0.22801   0.23370
  Beta virt. eigenvalues --    0.23850   0.23952   0.24447   0.24922   0.25167
  Beta virt. eigenvalues --    0.26282   0.26893   0.27203   0.27482   0.27764
  Beta virt. eigenvalues --    0.28129   0.28956   0.29879   0.30420   0.31696
  Beta virt. eigenvalues --    0.32366   0.33019   0.34266   0.34921   0.35521
  Beta virt. eigenvalues --    0.35978   0.37640   0.38946   0.39451   0.41360
  Beta virt. eigenvalues --    0.41859   0.42658   0.42830   0.43305   0.43495
  Beta virt. eigenvalues --    0.44232   0.44932   0.45488   0.45832   0.47240
  Beta virt. eigenvalues --    0.47839   0.48368   0.48891   0.49065   0.50038
  Beta virt. eigenvalues --    0.50183   0.51180   0.51343   0.52729   0.53549
  Beta virt. eigenvalues --    0.54031   0.54600   0.55062   0.55368   0.55707
  Beta virt. eigenvalues --    0.56368   0.56879   0.57262   0.57681   0.58037
  Beta virt. eigenvalues --    0.58786   0.59298   0.60320   0.60536   0.60835
  Beta virt. eigenvalues --    0.61322   0.61981   0.62428   0.62492   0.63015
  Beta virt. eigenvalues --    0.63074   0.63410   0.64092   0.64408   0.65061
  Beta virt. eigenvalues --    0.65201   0.65295   0.65684   0.65950   0.66369
  Beta virt. eigenvalues --    0.66590   0.67082   0.67266   0.67800   0.67840
  Beta virt. eigenvalues --    0.68107   0.68218   0.68522   0.69438   0.69562
  Beta virt. eigenvalues --    0.69682   0.70024   0.70437   0.70674   0.71298
  Beta virt. eigenvalues --    0.71764   0.72725   0.72822   0.73505   0.73740
  Beta virt. eigenvalues --    0.73975   0.74920   0.75455   0.75792   0.75991
  Beta virt. eigenvalues --    0.76281   0.77036   0.77328   0.77895   0.78501
  Beta virt. eigenvalues --    0.78648   0.79533   0.79873   0.80242   0.81138
  Beta virt. eigenvalues --    0.81476   0.82228   0.82366   0.83536   0.83811
  Beta virt. eigenvalues --    0.84657   0.84875   0.85061   0.85669   0.86023
  Beta virt. eigenvalues --    0.86655   0.88107   0.88572   0.89111   0.89331
  Beta virt. eigenvalues --    0.89843   0.91042   0.91283   0.92513   0.93104
  Beta virt. eigenvalues --    0.94461   0.94973   0.95253   0.95876   0.96489
  Beta virt. eigenvalues --    0.97020   0.97729   0.98490   0.99676   0.99784
  Beta virt. eigenvalues --    1.01032   1.01294   1.01826   1.03048   1.03553
  Beta virt. eigenvalues --    1.04756   1.06003   1.06632   1.08160   1.08433
  Beta virt. eigenvalues --    1.09219   1.11195   1.11364   1.12347   1.13434
  Beta virt. eigenvalues --    1.14378   1.14937   1.16542   1.17418   1.18151
  Beta virt. eigenvalues --    1.19069   1.20127   1.21990   1.22701   1.23024
  Beta virt. eigenvalues --    1.24669   1.25564   1.26161   1.27616   1.28263
  Beta virt. eigenvalues --    1.28795   1.30239   1.30656   1.31029   1.31408
  Beta virt. eigenvalues --    1.31766   1.32752   1.33531   1.33975   1.34848
  Beta virt. eigenvalues --    1.35232   1.36179   1.36842   1.37477   1.37588
  Beta virt. eigenvalues --    1.38620   1.38787   1.39439   1.40258   1.40921
  Beta virt. eigenvalues --    1.41522   1.42620   1.42866   1.43612   1.44181
  Beta virt. eigenvalues --    1.44642   1.45150   1.45616   1.45857   1.46330
  Beta virt. eigenvalues --    1.47761   1.47986   1.48433   1.49290   1.49614
  Beta virt. eigenvalues --    1.50444   1.50801   1.51789   1.51984   1.52767
  Beta virt. eigenvalues --    1.52922   1.53363   1.54394   1.54808   1.54920
  Beta virt. eigenvalues --    1.55987   1.56757   1.57422   1.58072   1.58734
  Beta virt. eigenvalues --    1.60130   1.60958   1.61346   1.62065   1.62573
  Beta virt. eigenvalues --    1.63102   1.63615   1.64020   1.64361   1.64582
  Beta virt. eigenvalues --    1.65558   1.65789   1.66454   1.67198   1.67842
  Beta virt. eigenvalues --    1.68178   1.68818   1.69345   1.69688   1.70110
  Beta virt. eigenvalues --    1.70732   1.71034   1.71847   1.72259   1.72523
  Beta virt. eigenvalues --    1.73017   1.73492   1.73715   1.74313   1.74421
  Beta virt. eigenvalues --    1.74867   1.74956   1.75478   1.76081   1.76276
  Beta virt. eigenvalues --    1.76875   1.76933   1.77360   1.77739   1.78403
  Beta virt. eigenvalues --    1.78724   1.79233   1.79921   1.80233   1.80877
  Beta virt. eigenvalues --    1.81283   1.82156   1.82800   1.83405   1.83672
  Beta virt. eigenvalues --    1.84224   1.84889   1.85522   1.85812   1.86161
  Beta virt. eigenvalues --    1.87469   1.87746   1.88397   1.88980   1.89448
  Beta virt. eigenvalues --    1.90237   1.90744   1.90883   1.91958   1.92939
  Beta virt. eigenvalues --    1.93611   1.94378   1.95781   1.95944   1.96978
  Beta virt. eigenvalues --    1.97916   1.99033   1.99378   1.99604   2.00489
  Beta virt. eigenvalues --    2.00821   2.01445   2.02190   2.02448   2.03412
  Beta virt. eigenvalues --    2.03933   2.05133   2.05858   2.06557   2.06840
  Beta virt. eigenvalues --    2.06925   2.07420   2.08140   2.08836   2.09702
  Beta virt. eigenvalues --    2.10130   2.10928   2.12197   2.12431   2.14240
  Beta virt. eigenvalues --    2.14768   2.15391   2.16433   2.17694   2.18566
  Beta virt. eigenvalues --    2.19709   2.20913   2.22272   2.23327   2.24259
  Beta virt. eigenvalues --    2.24595   2.25398   2.25860   2.26725   2.27706
  Beta virt. eigenvalues --    2.27981   2.29284   2.29837   2.30783   2.31670
  Beta virt. eigenvalues --    2.34421   2.35852   2.37726   2.39020   2.39308
  Beta virt. eigenvalues --    2.40018   2.40713   2.41113   2.41324   2.41902
  Beta virt. eigenvalues --    2.42738   2.43329   2.44680   2.45292   2.45629
  Beta virt. eigenvalues --    2.46394   2.46975   2.47635   2.48215   2.48589
  Beta virt. eigenvalues --    2.49797   2.50427   2.51171   2.51508   2.51794
  Beta virt. eigenvalues --    2.52444   2.52868   2.53913   2.54606   2.55300
  Beta virt. eigenvalues --    2.55988   2.56299   2.56611   2.57002   2.57973
  Beta virt. eigenvalues --    2.58291   2.58859   2.59254   2.59853   2.60970
  Beta virt. eigenvalues --    2.63595   2.64048   2.65864   2.66762   2.68304
  Beta virt. eigenvalues --    2.68773   2.69496   2.70186   2.71040   2.71638
  Beta virt. eigenvalues --    2.72967   2.73883   2.75621   2.77445   2.77666
  Beta virt. eigenvalues --    2.78767   2.80413   2.81152   2.83340   2.84122
  Beta virt. eigenvalues --    2.85211   2.85900   2.87592   2.90018   2.92434
  Beta virt. eigenvalues --    2.93108   2.96955   3.00920   3.04751   3.13516
  Beta virt. eigenvalues --    3.16708   3.19950   3.49166   3.58400  34.88459
  Beta virt. eigenvalues --   34.98915  35.02705  46.00753
          Condensed to atoms (all electrons):
          Atomic-Atomic Spin Densities.
 Mulliken charges and spin densities:
               1          2
     1  H    0.049972  -0.000312
     2  C   -0.109043   0.011303
     3  H    0.035489   0.000832
     4  H    0.151842  -0.000071
     5  H    0.142096  -0.000257
     6  O   -0.366357   0.860507
     7  H    0.058727  -0.000170
     8  O   -0.350539   0.970304
     9  C   -0.005680   0.000888
    10  H    0.035702  -0.000048
    11  H    0.023549   0.002344
    12  C   -0.014707   0.000231
    13  H    0.145560   0.000823
    14  H    0.038420   0.000005
    15  H    0.112300  -0.000134
    16  C   -0.014085   0.004465
    17  H    0.031919   0.000744
    18  H    0.135441  -0.003411
[...]
 3251,0.00000536,-0.00001745,0.00018454,-0.00057854,0.00006288,0.000001
 80,-0.00000281,-0.00000106,0.00001973,-0.00006714,0.00022995,-0.000020
 08,0.00000515,-0.00000916,0.00000306,0.00001365,-0.00001991,-0.0000059
 1,-0.00000462,0.00000502,-0.00001539,-0.00004037,-0.00003449,-0.000008
 49,0.00000323,-0.00000456,0.00000288,0.00000526,0.00000062,0.00000820,
 0.00000020,-0.00000078,-0.00001549,0.00002748,0.00004573,-0.00001167,0
 .00001443,-0.00000668,0.00013894,0.00005272,-0.00000629,-0.00044027,0.
 00144795,-0.00029691,-0.00004151,-0.00001881,-0.00005302,0.00004885,-0
 .00004693,0.00004417,-0.00024921,0.00003838,-0.00047898,0.00008299,0.0
 0012320,-0.00006301,0.00001413,0.00001782,-0.00002222,0.00000966,-0.00
 000080,0.00000328,-0.00000250,-0.00007504,0.00004721,0.00005464,0.0001
 0647,-0.00010525,-0.00036441,-0.00030949,0.00034581,-0.00008204,-0.000
 03055,0.00006020,0.00002438,-0.00004469,0.00003150,-0.00000296,-0.0000
 0188,0.00000203,-0.00000123,0.00000191,0.00000082,0.00000314,0.0000238
 3,-0.00001135,0.00002104,0.00001362,0.00001443,0.00000720,0.00000703,-
 0.00001549,0.00000191,-0.00000228,0.00029592,-0.00000889,-0.00002289,0
 .00005460,-0.00001471,0.00001548,0.00000740,0.00000742,-0.00000734,0.0
 0001294,0.00000212,0.00000809,-0.00000935,0.00000514,0.00000805,0.0000
 0146,0.00144775,-0.00080651,-0.00041480,0.00169047,-0.00671830,0.00335
 458,-0.00000136,-0.00000448,-0.00000460,-0.00000987,0.00002934,0.00003
 192,0.00001318,-0.00000038,0.00001130,-0.00000430,0.00000141,-0.000032
 72,-0.00000244,-0.00000179,0.00000255,-0.00119672,0.00091712,-0.001151
 31,-0.00000338,-0.00000129,-0.00000206,0.00002586,0.00002143,-0.000012
 44,-0.02342032,-0.00861870,0.01100629,0.00344795,0.00036900,0.00094905
 ,-0.00001349,-0.00000346,-0.00000987,0.00058950,0.00040245,-0.00025931
 ,0.00017429,-0.00036209,-0.00001388,0.00074083,-0.00016710,0.00021082,
 -0.11485093,-0.14370866,0.07170244,0.01087587,0.01033201,-0.00607183,0
 .12195516,0.14714975,0.00000203,-0.00000269,-0.00000398,0.00000101,-0.
 00000016,0.00001567,-0.00000131,0.00000235,0.00000060,-0.00000250,-0.0
 0000127,0.00000077,0.00002461,-0.00000009,0.00001754,-0.00007780,0.000
 13021,0.00002865,-0.00001000,0.00000118,-0.00000431,-0.00010969,-0.000
 05427,0.00002689,0.00001298,-0.00002147,-0.00000121,-0.00000769,0.0000
 0893,-0.00002072,0.00000181,0.00000300,0.00000142,0.00000780,-0.000072
 46,-0.00005137,0.00000337,-0.00000169,0.00000268,0.00000529,-0.0000222
 6,0.00002016,0.00000467,-0.00000359,0.00000611,-0.00000585,0.00001603,
 0.00002662,-0.00000413,0.00000596,-0.00000709,0.00019184,0.00014299,-0
 .00004368,0.00023645,-0.00027923,-0.00011790,0.00008019,0.00001856,0.0
 0004885,-0.00007174,-0.00002925,0.00008720,-0.00045749,-0.00033353,-0.
 00121223,-0.00001233,0.00002496,0.00009109,-0.00001573,-0.00004324,0.0
 0001426,-0.00001144,0.00000318,-0.00000071,0.00000320,0.00015090,-0.00
 018728,-0.00001548,0.00000961,-0.00008536,-0.00008616,-0.00003625,0.00
 014183,-0.00005631,0.00003626,0.00003959,0.00001554,0.00000146,0.00000
 335,0.00000076,-0.00000057,0.00000119,0.00000050,0.00000184,-0.0000023
 1,-0.00000292,-0.00000863,0.00000029,0.00000015,0.00000732,0.00000976,
 -0.00001827,0.00000075,-0.00001049,0.00004925,-0.00001936,-0.00001648,
 0.00002020,0.00000111,-0.00006196,0.00000226,-0.00000354,-0.00000306,0
 .00001150,-0.00000923,0.00000177,0.00001101,-0.00002055,0.00001224,-0.
 00000207,-0.00000401,0.00000218,-0.00080476,0.00002535,-0.00041321,0.0
 0214783,0.00317195,0.00614264,0.00000038,-0.00000432,-0.00000135,-0.00
 004757,-0.00003061,0.00003442,-0.00000035,-0.00000085,0.00000151,-0.00
 000417,0.00000097,0.00000937,-0.00000034,-0.00000023,0.00000202,-0.000
 09166,-0.00040495,-0.00228475,-0.00000246,-0.00000193,-0.00000052,-0.0
 0002593,0.00000446,0.00002706,0.00462538,0.00076109,-0.00107356,0.0025
 1062,0.00073944,0.00659679,0.00000242,0.00000665,0.00000572,0.00013596
 ,0.00022583,0.00025282,0.00018726,-0.00047096,-0.00012393,-0.00059834,
 -0.00012729,0.00026683,0.09298038,0.07222580,-0.08812552,0.00268582,0.
 00366970,0.00041059,-0.10201907,-0.07811201,0.08279068,0.00000048,-0.0
 0001857,-0.00000286,-0.00001739,-0.00000994,0.00004367,-0.00000120,-0.
 00000328,-0.00000439,-0.00000215,-0.00000261,-0.00000186,-0.00000209,-
 0.00000069,0.00000354,0.00001957,-0.00004348,0.00003225,-0.00000178,-0
 .00000237,-0.00000326,0.00002002,-0.00002686,-0.00005037,0.00001522,-0
 .00010658,-0.00010694,-0.00000033,0.00000751,-0.00001717,0.00000053,0.
 00000600,-0.00000020,-0.00001499,-0.00003311,-0.00002815,0.00000028,-0
 .00000384,0.00000140,-0.00000016,-0.00000328,0.00000614,-0.00000958,0.
 00000289,-0.00000345,-0.00003671,0.00003925,0.00006611,-0.00001406,0.0
 0002181,-0.00001582,0.00003304,0.00003722,0.00007046,-0.00006040,0.000
 07276,-0.00010839,-0.00000341,-0.00000154,0.00000827,-0.00008466,-0.00
 021714,0.00029616,0.00061489,-0.00071347,-0.00046723,0.00003447,0.0000
 6703,0.00000120,-0.00000501,-0.00000021,-0.00001592,-0.00000152,-0.000
 00135,-0.00000183,-0.00001174,0.00000582,-0.00003424,0.00001990,0.0000
 9151,-0.00015676,-0.00025815,-0.00015627,0.00036069,-0.00002558,0.0000
 0269,-0.00002569,0.00001844,0.00000360,0.00000005,-0.00001554,-0.00000
 937,-0.00000901,-0.00000059,0.00000322,0.00000109,-0.00000492,0.000007
 70,-0.00000149,0.00003345,-0.00000837,0.00004462,-0.00000486,0.0000002
 7,-0.00001086,-0.00004342,-0.00002911,-0.00001882,0.00000785,-0.000002
 76,-0.00000389,-0.00000191,0.00000289,0.00000067,-0.00001166,-0.000006
 79,-0.00000719,0.00000247,-0.00000122,0.00000159,-0.00000088,0.0000072
 2,0.00000370,-0.00221199,-0.00233127,0.00471008,-0.00139166,-0.0004805
 8,-0.00026444,-0.00000478,-0.00000209,-0.00001416,0.00000370,0.0000100
 1,0.00002215,0.00000036,0.00001267,0.00000567,0.00000920,-0.00000049,-
 0.00001125,0.00000602,-0.00000227,0.00001090,0.00022543,0.00119434,-0.
 00068480,-0.00000501,-0.00000769,-0.00000550,0.00000595,0.00000702,0.0
 0000884,-0.00426580,0.00266294,0.00355196,0.00856182,-0.02138027,0.005
 36668,0.00000056,-0.00000589,-0.00000543,0.00038550,-0.00003302,-0.001
 59734,0.00000327,0.00001364,0.00004307,0.00000578,-0.00004373,-0.00001
 092,0.00029610,0.02694181,-0.00665472,-0.06653348,0.05290830,-0.007646
 21,0.00059257,-0.00077210,-0.00138470,0.06412141,-0.00000162,-0.000020
 30,-0.00000161,-0.00001418,-0.00000898,0.00004980,-0.00000436,-0.00000
 357,-0.00000705,0.00000192,0.00000090,-0.00000412,0.00000428,0.0000013
 3,-0.00000431,0.00001002,-0.00004167,0.00004887,0.00000133,0.00000249,
 0.00000210,0.00004534,0.00000698,0.00006942,0.00002691,-0.00006988,-0.
 00013720,0.00000289,-0.00000202,0.00001159,-0.00000606,0.00000761,0.00
 000421,0.00000861,0.00001555,0.00001499,-0.00000262,0.00000476,-0.0000
 0037,-0.00000083,-0.00000124,-0.00000301,-0.00000734,0.00000386,-0.000
 00573,0.00001895,-0.00002144,-0.00003915,0.00000977,-0.00001330,0.0000
 0706,-0.00004984,-0.00001267,0.00003515,-0.00015282,0.00012245,-0.0002
 6106,-0.00000275,-0.00000285,-0.00000813,-0.00010247,-0.00015515,0.000
 23869,0.00063665,-0.00034674,-0.00042870,-0.00001331,-0.00003065,-0.00
 001218,0.00000712,-0.00000604,0.00001629,-0.00000036,0.00000166,0.0000
 0180,0.00001049,0.00001333,0.00001519,-0.00001394,-0.00001960,0.000088
 04,0.00007637,0.00008985,-0.00020535,-0.00001670,-0.00000388,-0.000019
 14,-0.00000740,-0.00000852,-0.00000695,-0.00001467,-0.00000975,-0.0000
 1311,-0.00000181,0.00000136,0.00000161,0.00000735,-0.00000610,-0.00000
 102,0.00005320,-0.00001353,0.00007441,0.00000563,0.00000285,0.00000961
 ,0.00003395,0.00000333,0.00011205,-0.00000248,0.00000400,0.00000642,-0
 .00000190,0.00000071,0.00000305,0.00000710,0.00000260,0.00000246,0.000
 00024,-0.00000266,-0.00000144,0.00000492,-0.00000684,-0.00000322,-0.00
 261194,0.00062989,0.00341959,-0.00054129,0.00020973,-0.00067013,-0.000
 00753,0.00000459,-0.00001500,-0.00000981,-0.00001752,-0.00001770,0.000
 00392,0.00001206,0.00001438,-0.00000779,0.00000199,0.00001062,0.000009
 48,-0.00000317,0.00001335,-0.00023771,-0.00044390,0.00009965,-0.000010
 57,-0.00001173,-0.00001005,-0.00000657,-0.00000461,-0.00000409,0.00287
 521,0.00196259,0.00103776,0.00665130,-0.01111549,0.00265825,-0.0000003
 9,0.00000429,0.00000767,-0.00046308,0.00050157,-0.00126393,0.00008506,
 -0.00008183,0.00001154,-0.00002240,0.00000745,0.00000261,-0.00105748,-
 0.00705671,0.00406329,0.05288854,-0.32046998,0.06819702,-0.00038877,0.
 00044741,-0.00127500,-0.05768059,0.33593049,0.00000299,0.00000987,-0.0
 0000210,0.00001428,0.00000979,-0.00001134,0.00000080,0.00000340,0.0000
 0136,0.00000019,-0.00000390,-0.00000043,0.00000704,0.00000467,0.000003
 79,0.00000343,0.00006301,0.00003476,-0.00000316,-0.00000030,-0.0000008
 7,-0.00005099,0.00007027,-0.00012280,0.00001363,0.00001822,0.00005686,
 0.00000179,0.00000373,-0.00000756,0.00000832,-0.00000073,-0.00000574,-
 0.00000595,-0.00002212,0.00000014,0.00000249,-0.00000002,0.00000202,0.
 00000073,-0.00000427,0.00000232,0.00000802,-0.00000257,0.00001387,0.00
 000863,-0.00000552,-0.00000645,0.00000187,-0.00000350,0.00000112,0.000
 20199,0.00013137,-0.00003671,0.00002901,-0.00023463,-0.00025946,0.0000
 1296,0.00001686,0.00001793,-0.00003229,0.00028019,-0.00012555,-0.00065
 749,0.00001679,-0.00034568,-0.00001679,0.00003076,-0.00000109,-0.00001
 364,-0.00000032,-0.00000976,-0.00000132,-0.00000032,0.00000002,0.00001
 641,-0.00000026,-0.00002432,-0.00001784,-0.00001831,0.00002109,0.00005
 751,-0.00009124,-0.00001696,0.00000615,0.00000195,0.00002134,-0.000001
 55,0.00000054,0.00000325,0.00000841,0.00000673,0.00000287,0.00000085,0
 .00000176,-0.00000290,-0.00000050,-0.00000164,0.00000053,-0.00002922,-
 0.00001083,0.00000196,-0.00000639,-0.00000054,-0.00000492,0.00002770,-
 0.00002616,-0.00000010,0.00000407,-0.00000426,-0.00000866,0.00000383,-
 0.00000068,-0.00000521,0.00000651,-0.00000332,0.00000208,0.00000305,-0
 .00000211,0.00000069,-0.00000008,-0.00000095,-0.00000261,0.00482449,0.
 00309090,0.00545549,-0.00071037,-0.00088023,-0.00208720,0.00000012,0.0
 0000394,0.00000702,-0.00001481,-0.00000106,0.00000679,0.00000701,0.000
 00349,-0.00000402,-0.00000180,0.00000060,-0.00000006,-0.00000462,0.000
 00008,-0.00000015,-0.00010012,-0.00030962,-0.00034323,0.00000010,-0.00
 000113,0.00000113,-0.00000040,0.00000245,0.00000449,0.00346686,0.00122
 082,0.00681748,-0.00313388,0.01282063,0.00211568,-0.00000119,0.0000026
 2,0.00000078,-0.00151556,-0.00140328,-0.00303668,0.00011422,-0.0001059
 9,0.00002766,-0.00005100,0.00002883,0.00000939,0.00213191,-0.00596058,
 0.00601740,-0.00785613,0.06816565,-0.05916584,-0.00147154,-0.00107965,
 -0.00325445,0.00471569,-0.07584913,0.04827672,0.00004161,0.00001264,0.
 00005668,-0.00018721,-0.00002587,-0.00004228,0.00023582,0.00006683,0.0
 0002976,-0.00016885,-0.00009343,-0.00014224,0.00018303,0.00001070,-0.0
 0000907,0.00019125,0.00026391,0.00115300,-0.00001844,0.00002530,-0.000
 04621,-0.00709226,-0.00323624,-0.00500242,0.00057858,-0.00014501,0.000
 58019,0.00001389,-0.00001429,-0.00005223,0.00013063,0.00003418,-0.0001
 8646,-0.00001631,-0.00015802,0.00009544,0.00006578,-0.00005072,0.00001
 970,0.00000856,0.00002577,0.00001128,-0.00047674,-0.00007439,0.0001347
 4,-0.00012624,-0.00007776,0.00001517,-0.00004410,0.00003690,0.00003474
 ,-0.00012167,0.00018595,-0.00002230,0.02092467,0.00254732,-0.00909478,
 0.00024187,0.00049749,-0.00000568,0.00188920,-0.00027608,-0.00016752,0
 .00007445,0.00032635,0.00019597,-0.00002062,0.00002886,-0.00010872,-0.
 00008151,-0.00005534,-0.00003883,-0.00000775,-0.00002553,-0.00000659,-
 0.00006249,-0.00015503,0.00007866,-0.00083552,-0.00025293,-0.00029495,
 0.00380315,0.00171704,0.00247001,0.00009259,-0.00020134,-0.00013603,-0
 .00008006,0.00032880,-0.00001291,-0.00017872,0.00112576,-0.00008608,-0
 .00031194,0.00000016,0.00005008,-0.00011085,-0.00001067,0.00006770,-0.
 00082178,0.00032895,-0.00162301,-0.00002180,-0.00002374,-0.00001092,-0
 .07775910,-0.00527009,-0.19338633,-0.00000697,0.00005216,-0.00004844,-
 0.00037578,-0.00011429,-0.00020018,-0.00074381,-0.00083312,0.00032680,
 -0.00003306,0.00001877,0.00001833,-0.00011260,0.00009317,-0.00024523,-
 0.00032101,-0.00037972,0.00008376,0.00022284,0.00020994,-0.00061064,0.
 00025322,-0.00005263,0.00091490,-0.00013635,-0.00007654,0.00005274,-0.
 00056394,-0.00129034,0.00056653,0.00005236,-0.00001696,0.00001826,-0.0
 0022209,0.00010712,0.00002855,-0.00063954,-0.00014519,-0.00024480,0.00
 028692,-0.00001251,0.00004633,0.00000412,-0.00000429,0.00002116,-0.000
 21559,-0.00016264,-0.00003721,0.00019249,-0.00004964,0.00009211,-0.001
 36068,0.00083904,-0.00072507,0.00005625,-0.00007634,-0.00002200,-0.000
 15635,-0.00003947,0.00000254,0.00006431,-0.00025695,0.00025085,-0.0000
 5890,0.00004965,0.00007573,0.00017400,-0.00019826,-0.00000658,-0.00002
 554,-0.00001821,-0.00001421,0.00000914,-0.00002316,-0.00001445,0.06372
 546,0.00000755,0.00000908,0.00000314,-0.00002823,0.00001855,-0.0000190
 4,0.00004759,-0.00003472,-0.00002451,-0.00003657,-0.00002736,-0.000080
 03,-0.00018905,0.00005504,-0.00012009,-0.00084067,-0.00000318,-0.00401
 959,-0.00000478,-0.00001180,0.00001767,-0.00056288,-0.00563010,0.00288
 226,-0.00011074,-0.00005790,-0.00004431,0.00006252,0.00003946,-0.00003
 355,0.00000472,0.00001313,0.00000311,0.00005477,-0.00010408,0.00005988
 ,0.00001545,-0.00001862,-0.00001530,0.00005906,0.00001861,-0.00000711,
 0.00014369,0.00012983,0.00000056,0.00000198,0.00004294,0.00009050,-0.0
 0003383,0.00003057,-0.00002273,0.00012045,-0.00006431,-0.00013010,0.00
 051121,0.02361028,-0.00790936,-0.00004351,-0.00000169,-0.00002895,0.00
 007654,0.00032468,0.00023831,-0.00019886,0.00018402,0.00019835,-0.0000
 6027,0.00009287,0.00003417,0.00001658,-0.00000629,-0.00001250,0.000038
 95,0.00002261,-0.00001913,0.00001073,-0.00002423,0.00009381,0.00014678
 ,-0.00022415,-0.00025766,0.00114021,-0.00003199,0.00098147,-0.00002370
 ,-0.00004044,-0.00008245,-0.00000521,0.00011804,0.00018217,-0.00011793
 ,0.00020741,-0.00003261,0.00008988,-0.00001391,-0.00002932,-0.00006065
 ,-0.00001614,0.00001667,0.00014974,-0.00109255,0.00032927,-0.00002516,
 -0.00001259,-0.00000448,-0.00622466,-0.03724624,-0.02170022,0.00000575
 ,0.00000165,-0.00006505,0.00038726,0.00007746,-0.00027945,0.00008644,0
 .00012880,0.00053173,-0.00000840,0.00000423,0.00000233,-0.00000151,0.0
 0002604,0.00003114,0.00010257,-0.00022848,0.00027915,-0.00006386,0.002
 48533,0.00106848,0.00000643,0.00026377,-0.00012465,-0.00002049,0.00003
 353,-0.00002890,0.00032328,0.00033094,-0.00025506,0.00002353,0.0000019
 5,-0.00002186,-0.00002274,-0.00000690,0.00002406,-0.00013371,0.0000827
 4,-0.00009513,-0.00000553,-0.00004491,0.00000519,0.00002592,0.00002092
 ,-0.00000871,-0.00018405,0.00005764,0.00035061,-0.00002067,0.00014136,
 -0.00007614,0.00005883,-0.00018533,0.00008310,-0.00000683,0.00000841,-
 0.00000522,0.00026384,-0.00014133,0.00001091,0.00002364,0.00002295,0.0
 0004141,0.00008443,0.00010805,-0.00010226,-0.00004858,0.00000310,0.000
 00864,0.00001669,0.00003908,-0.00000232,0.00001208,0.00001464,0.000019
 24,0.00496396,0.01649956,0.00015621,0.00005550,0.00005185,-0.00021934,
 0.00000859,0.00007880,0.00073824,0.00028234,0.00016681,-0.00090198,-0.
 00044066,-0.00024590,0.00106208,-0.00035239,0.00090492,0.00124279,0.00
 395346,0.00477975,0.00020332,-0.00026653,0.00036314,0.00454381,-0.0068
 0024,-0.02177570,0.00062652,0.00052263,0.00013445,-0.00031575,-0.00021
 511,-0.00012269,0.00055571,-0.00000573,-0.00000509,0.00000316,0.000184
 98,0.00018620,0.00045827,-0.00042409,-0.00002657,-0.00016403,0.0000637
 5,0.00000135,-0.00140688,-0.00047122,0.00070415,0.00043231,0.00073473,
 0.00075888,-0.00042883,0.00026947,0.00006317,-0.00207726,0.00148139,-0
 .00043377,-0.02374206,-0.00821608,-0.03164171,0.00079304,0.00158972,0.
 00007878,-0.00003327,0.00045218,0.00167908,0.00001396,-0.00084761,0.00
 149571,-0.00202164,-0.00029937,0.00120924,-0.00024007,-0.00009910,-0.0
 0012444,0.00036995,0.00004876,-0.00007393,-0.00012103,-0.00023269,0.00
 044788,-0.00091499,-0.00358837,-0.00071020,0.01213605,0.00485246,-0.00
 492742,0.00045049,-0.00040532,0.00012799,-0.00032687,0.00171670,0.0008
 1775,0.00116864,0.00151464,-0.00076419,-0.00057983,-0.00005682,0.00004
 047,-0.00069637,-0.00009442,0.00031561,-0.00041925,-0.00026304,-0.0040
 6111,-0.00042599,-0.00012784,-0.00006823,-0.19340443,-0.01813434,-0.99
 058149,0.00020150,-0.00037897,-0.00100533,-0.00010112,0.00056950,-0.00
 195874,0.00018494,0.00182272,-0.00091341,-0.00017691,0.00015635,-0.000
 01561,0.00041393,-0.00024819,0.00075189,0.00164641,-0.00087455,-0.0005
 8507,-0.00039718,0.00473382,0.00064871,0.00043199,0.00007195,0.0016317
 2,-0.00030354,-0.00032325,0.00018916,0.00113885,-0.00225290,-0.0002864
 3,-0.00003166,-0.00037231,-0.00001701,-0.00049108,0.00024474,0.0000006
 0,-0.00180283,-0.00061512,-0.00022144,0.00067865,-0.00002143,0.0001891
 4,-0.00004094,-0.00017143,0.00015426,0.00027706,-0.00220770,-0.0003009
 7,0.00013206,-0.00022748,0.00016434,-0.00190508,-0.00172839,0.00124474
 ,0.00013382,-0.00017498,-0.00003037,-0.00150431,-0.00057152,0.00035600
 ,0.00007036,-0.00076183,0.00103461,-0.00086687,0.00029837,0.00029270,0
 .00077624,-0.00113202,-0.00005664,-0.00013028,-0.00021548,-0.00003371,
 -0.00000138,-0.00008070,-0.00003516,0.20515265,0.02807046,1.03995853\\
 -0.00000283,-0.00000064,0.00000161,-0.00000238,-0.00000203,0.00000310,
 -0.00000049,0.00000246,0.00000210,0.00000011,0.00000177,-0.00000178,-0
 .00000541,0.00001248,0.00000410,0.00001118,-0.00004684,-0.00000992,0.0
 0000208,0.00000838,-0.00000870,0.00000275,0.00001185,0.00007575,0.0000
 0629,-0.00000344,0.00001264,-0.00000459,0.00000654,0.00000922,0.000005
 38,0.00000092,0.00000030,0.00001094,-0.00002980,-0.00001737,-0.0000035
 3,-0.00001029,-0.00000630,0.00000272,0.00001392,0.00000043,-0.00000201
 ,-0.00000678,0.00000139,0.00000704,0.00000075,0.00002007,-0.00000772,-
 0.00000513,0.00000373,0.00000503,0.00000441,-0.00000716,0.00002786,0.0
 0001739,-0.00001304,-0.00000563,0.00000661,-0.00000525,-0.00000833,0.0
 0001054,-0.00001983,-0.00000744,0.00002651,0.00001119,0.00002337,-0.00
 002429,0.00000009,0.00000157,-0.00000274,-0.00000669,0.00000138,0.0000
 0199,0.00000562,-0.00000755,0.00000886,0.00001655,-0.00000748,0.000037
 29,-0.00002405,0.00001721,0.00001270,0.00001353,0.00000359,0.00000159,
 -0.00000124,-0.00001093,-0.00001657,0.00000740,-0.00000112,-0.00000017
 ,-0.00000291,-0.00000063,0.00000167,-0.00000206,-0.00000443,-0.0000049
 2,-0.00000165,-0.00001006,-0.00000526,-0.00000668,-0.00000024,-0.00000
 181,-0.00000035,-0.00003735,-0.00000955,-0.00009347,-0.00001286,-0.000
 00354,0.00000249,0.00000213,0.00000016,0.00000507,0.00000364,-0.000014
 66,-0.00000549,-0.00000612,-0.00000364,0.00000418,-0.00000122,0.000002
 44,0.00000225,0.00000385,-0.00000280,0.00001027,0.00001349,0.00000412,
 -0.00000182,-0.00000129,0.00000226,-0.00000421,-0.00000761,-0.00000795
 ,-0.00000140,0.00000089,-0.00000056,0.00000397,-0.00000364,0.00000365,
 -0.00000782,-0.00000159,0.00000110,-0.00000156,0.00000261,-0.00001775,
 -0.00000020,-0.00000305,0.00000142,0.00000218,0.00000303,0.,-0.0000100
 2,-0.00001948,0.00001093,0.00000234,0.00000113,-0.00000032,-0.00000314
 ,-0.00000909,0.00000859,-0.00000173,0.00000062,0.00000214,0.00000226,0
 .00000369,-0.00000488,-0.00000268,0.00000353,0.00000059,-0.00000043,0.
 00000789,-0.00000315,0.00000112,-0.00000336,0.00000528,-0.00000082,0.0
 0000087,0.00000224,-0.00000044,0.00000124,0.,-0.00000068,0.00002236,-0
 .00000406,0.00004596\\\@


 MATERIAL COPIED FROM ONE SCHOLARLY BOOK WITHOUT CREDIT COMPRISES PLAGIARISM.
 MATERIAL COPIED FROM TWO SCHOLARLY BOOKS COMPRISES AN ESSAY.
 MATERIAL COPIED FROM THREE SCHOLARLY BOOKS COMPRISES A DISSERTATION.
 MATERIAL COPIED FROM FOUR SCHOLARLY BOOKS COMPRISES A FIFTH SCHOLARLY BOOK.

                               -- C&EN, 25 FEB 1980
 Job cpu time:       1 days 17 hours 41 minutes 17.0 seconds.
 Elapsed time:       0 days  2 hours  5 minutes 10.8 seconds.
 File lengths (MBytes):  RWF=   4063 Int=      0 D2E=      0 Chk=     40 Scr=      1
 Normal termination of Gaussian 16 at Thu Jun 25 06:11:04 2020.
