 Entering Gaussian System, Link 0=g16
 Initial command:
 /cluster/chemistry/gaussian/g16/l1.exe "/scratch/js1212.771178/scratch/Gau-31442.inp" -scrdir="/scratch/js1212.771178/scratch/"
 Entering Link 1 = /cluster/chemistry/gaussian/g16/l1.exe PID=     31443.
  
 Copyright (c) 1988,1990,1992,1993,1995,1998,2003,2009,2016,
            Gaussian, Inc.  All Rights Reserved.
  
 This is part of the Gaussian(R) 16 program.  It is based on
 the Gaussian(R) 09 system (copyright 2009, Gaussian, Inc.),
 the Gaussian(R) 03 system (copyright 2003, Gaussian, Inc.),
 the Gaussian(R) 98 system (copyright 1998, Gaussian, Inc.),
 the Gaussian(R) 94 system (copyright 1995, Gaussian, Inc.),
 the Gaussian 92(TM) system (copyright 1992, Gaussian, Inc.),
 the Gaussian 90(TM) system (copyright 1990, Gaussian, Inc.),
 the Gaussian 88(TM) system (copyright 1988, Gaussian, Inc.),
 the Gaussian 86(TM) system (copyright 1986, Carnegie Mellon
 University), and the Gaussian 82(TM) system (copyright 1983,
 Carnegie Mellon University). Gaussian is a federally registered
 trademark of Gaussian, Inc.
  
 This software contains proprietary and confidential information,
 including trade secrets, belonging to Gaussian, Inc.
  
 This software is provided under written license and may be
 used, copied, transmitted, or stored only in accord with that
 written license.
  
 The following legend is applicable only to US Government
 contracts under FAR:
  
                    RESTRICTED RIGHTS LEGEND
  
 Use, reproduction and disclosure by the US Government is
 subject to restrictions as set forth in subparagraphs (a)
 and (c) of the Commercial Computer Software - Restricted
 Rights clause in FAR 52.227-19.
  
 Gaussian, Inc.
 340 Quinnipiac St., Bldg. 40, Wallingford CT 06492
  
  
 ---------------------------------------------------------------
 Warning -- This program may not be used in any manner that
 competes with the business of Gaussian, Inc. or will provide
 assistance to any competitor of Gaussian, Inc.  The licensee
 of this program is prohibited from giving any competitor of
 Gaussian, Inc. access to this program.  By using this program,
 the user acknowledges that Gaussian, Inc. is engaged in the
 business of creating and licensing software in the field of
 computational chemistry and represents and warrants to the
 licensee that it is not a competitor of Gaussian, Inc. and that
 it will not use this program in any manner prohibited above.
 ---------------------------------------------------------------
  

 Cite this work as:
 Gaussian 16, Revision A.03,
 M. J. Frisch, G. W. Trucks, H. B. Schlegel, G. E. Scuseria, 
 M. A. Robb, J. R. Cheeseman, G. Scalmani, V. Barone, 
 G. A. Petersson, H. Nakatsuji, X. Li, M. Caricato, A. V. Marenich, 
 J. Bloino, B. G. Janesko, R. Gomperts, B. Mennucci, H. P. Hratchian, 
 J. V. Ortiz, A. F. Izmaylov, J. L. Sonnenberg, D. Williams-Young, 
 F. Ding, F. Lipparini, F. Egidi, J. Goings, B. Peng, A. Petrone, 
 T. Henderson, D. Ranasinghe, V. G. Zakrzewski, J. Gao, N. Rega, 
 G. Zheng, W. Liang, M. Hada, M. Ehara, K. Toyota, R. Fukuda, 
 J. Hasegawa, M. Ishida, T. Nakajima, Y. Honda, O. Kitao, H. Nakai, 
 T. Vreven, K. Throssell, J. A. Montgomery, Jr., J. E. Peralta, 
 F. Ogliaro, M. J. Bearpark, J. J. Heyd, E. N. Brothers, K. N. Kudin, 
 V. N. Staroverov, T. A. Keith, R. Kobayashi, J. Normand, 
 K. Raghavachari, A. P. Rendell, J. C. Burant, S. S. Iyengar, 
 J. Tomasi, M. Cossi, J. M. Millam, M. Klene, C. Adamo, R. Cammi, 
 J. W. Ochterski, R. L. Martin, K. Morokuma, O. Farkas, 
 J. B. Foresman, and D. J. Fox, Gaussian, Inc., Wallingford CT, 2016.
 
 ******************************************
 Gaussian 16:  ES64L-G16RevA.03 25-Dec-2016
                28-Aug-2020 
 ******************************************
 %rwf=/scratch/js1212.771178/GAlt-Mono-T-0-GP-SMD.rwf
 %nosave
 %nprocshared=20
 Will use up to   20 processors via shared memory.
 %mem=3000MB
 %oldchk=/data/js1212/200624_g16/GAlt-Mono-T-0-GPOF.chk
 %chk=/scratch/js1212.771178/GAlt-Mono-T-0-GP-SMD.chk
 Copying data from "/data/js1212/200624_g16/GAlt-Mono-T-0-GPOF.chk" to current chk file "/scratch/js1212.771178/GAlt-Mono-T-0-GP-SMD.chk"
 IOpt=  2 FromEx=T IUOpen= 4 IOptOp= 5 NList=   0 IFRang= 0 IUIn= 4 IUOut= 2.
 ----------------------------------------------------------------------
 # genecp pbe1pbe EmpiricalDispersion=GD3BJ scrf=(SMD,solvent=water) ge
 om=allcheck
 ----------------------------------------------------------------------
 1/29=7,38=1,172=1/1;
 2/12=2,40=1/2;
 3/5=7,11=2,14=-4,16=1,17=8,25=1,30=1,70=32201,72=1,74=-13,124=41/1,2,3;
 4//1;
 5/5=2,38=5,53=1/2;
 6/7=2,8=2,9=2,10=2,28=1/1;
 99/5=1,9=1/99;
 Structure from the checkpoint file:  "/scratch/js1212.771178/GAlt-Mono-T-0-GP-SMD.chk"
 -------------------
 Title Card Required
 -------------------
 Charge =  0 Multiplicity = 3
 Redundant internal coordinates found in file.  (old form).
 H,0,-3.4891278328,-3.2688567186,1.9434878654
 C,0,-3.2263167176,-2.6923017582,1.0443048643
 H,0,-3.9619060075,-2.946764942,0.265248692
 H,0,-2.2248934893,-3.0134139476,0.7164393851
 H,0,1.3576407426,-0.6314234554,2.7276553197
 O,0,-0.0489024962,-2.4744597632,0.3210415099
 H,0,4.1916750761,-1.8309132987,0.7630973562
 O,0,-0.4881420604,-0.1049527513,1.8798857738
 C,0,-3.213143701,-1.2201528709,1.3953092074
 H,0,2.7810177966,0.0595199698,3.5803206785
 H,0,-4.2134722829,-0.8812212509,1.7297580479
 C,0,2.42652405,-0.3796141145,2.6323550707
 H,0,2.6668051593,-2.7276255592,0.4825995231
 H,0,3.010501479,-1.2905188,2.4481255297
 H,0,-2.4916904302,-1.0375260435,2.2087362602
 C,0,3.5199807058,-2.2330727467,-0.0071377926
 H,0,4.0794591233,-2.9985375974,-0.5694679307
 H,0,-2.2850360673,1.0128781415,1.7508968386
 Ru,0,-0.3617561873,-0.6659544509,0.1054480926
 H,0,0.7101636167,1.6100003207,2.0175247323
 N,0,-2.7356975084,-0.3569008105,0.2967864643
 C,0,-2.7545182493,1.0411177112,0.7493212325
 C,0,2.5946725427,0.6669001374,1.5255687758
 H,0,2.1368932441,2.2673610099,2.8800661979
 H,0,4.8355016638,0.1134570551,-0.8612497499
 C,0,1.7675577638,1.9008576639,1.9076539009
 C,0,3.0371272665,-1.1603957163,-0.9865439534
 P,0,1.8334009431,-0.0257205657,-0.0647888079
 H,0,-3.7765331975,1.4504957081,0.8195942564
 C,0,4.213837627,-0.4007426403,-1.602850517
 H,0,-3.2258653962,-1.5344815937,-1.3506094767
 H,0,-5.4556956576,-1.0920485328,-0.2519095148
 H,0,4.8578083628,-1.1226377863,-2.1320111216
 C,0,-3.4666200928,-0.5325119867,-0.9693530142
 H,0,4.3730482156,1.568843262,2.3108777885
 C,0,-0.589322255,-0.9317810229,-1.8108997482
 C,0,4.0588300345,1.075522793,1.3761338494
 H,0,1.4543811092,-2.4778402351,-1.7002760804
 C,0,2.2725092313,-1.86704386,-2.1073314079
 H,0,4.7281455247,0.2179957537,1.2217957523
 H,0,2.9762591459,-2.5287561335,-2.6388696758
 C,0,-1.8666596938,1.9379512935,-0.0607699954
 N,0,-0.666746745,1.4173507831,-0.3642453453
 C,0,-4.9765640079,-0.3512636875,-0.9085201004
 H,0,1.8789667583,2.7257655667,1.18632529
 H,0,-3.0361265064,0.1814669084,-1.6886266721
 H,0,3.8806112713,0.3378806693,-2.3480391121
 H,0,-5.2691662245,0.6509256556,-0.560450473
 C,0,1.6155116287,1.4567266957,-1.188170172
 H,0,-5.3964661921,-0.4817299655,-1.9172408774
 H,0,4.2183244423,1.7978546956,0.5597415941
 C,0,0.3047285859,2.1520262951,-0.9286103675
 C,0,-2.1613731902,3.2602934432,-0.378658755
 H,0,1.8628596455,-1.1653638981,-2.8488826005
 H,0,-3.1432201956,3.6722592607,-0.1427350736
 H,0,1.6083056305,1.0485349249,-2.2134797139
 H,0,2.45339723,2.1674962654,-1.1279817894
 C,0,0.0759971004,3.4908464714,-1.2426379633
 C,0,-1.1749680562,4.0410247394,-0.9765261096
 H,0,0.86957353,4.0889255935,-1.6918453296
 H,0,-1.3782959851,5.0834319717,-1.2288036345
 O,0,-0.8186698209,-0.955272256,-2.9431169737
 Recover connectivity data from disk.
                           ----------------------------
                           !    Current Parameters    !
                           ! (Angstroms and Degrees)  !
 --------------------------                            --------------------------
 ! Name  Definition              Value                                          !
 --------------------------------------------------------------------------------
 ! R1    R(1,2)                  1.1                                            !
 ! R2    R(2,3)                  1.1013                                         !
 ! R3    R(2,4)                  1.1016                                         !
 ! R4    R(2,9)                  1.5135                                         !
 ! R5    R(5,12)                 1.1023                                         !
 ! R6    R(6,19)                 1.848                                          !
 ! R7    R(7,16)                 1.0983                                         !
 ! R8    R(8,19)                 1.8653                                         !
 ! R9    R(9,11)                 1.1079                                         !
 ! R10   R(9,15)                 1.1025                                         !
 ! R11   R(9,21)                 1.4765                                         !
 ! R12   R(10,12)                1.1032                                         !
 ! R13   R(12,14)                1.0976                                         !
 ! R14   R(12,23)                1.5325                                         !
 ! R15   R(13,16)                1.1011                                         !
 ! R16   R(16,17)                1.1023                                         !
 ! R17   R(16,27)                1.5307                                         !
 ! R18   R(18,22)                1.1065                                         !
 ! R19   R(19,28)                2.2929                                         !
 ! R20   R(19,36)                1.948                                          !
 ! R21   R(19,43)                2.1573                                         !
 ! R22   R(20,26)                1.1022                                         !
 ! R23   R(21,22)                1.4696                                         !
 ! R24   R(21,34)                1.4725                                         !
 ! R25   R(22,29)                1.1032                                         !
 ! R26   R(22,42)                1.4996                                         !
 ! R27   R(23,26)                1.5339                                         !
 ! R28   R(23,28)                1.8943                                         !
 ! R29   R(23,37)                1.5274                                         !
 ! R30   R(24,26)                1.1029                                         !
 ! R31   R(25,30)                1.0958                                         !
 ! R32   R(26,45)                1.1015                                         !
 ! R33   R(27,28)                1.8937                                         !
 ! R34   R(27,30)                1.5302                                         !
 ! R35   R(27,39)                1.5298                                         !
 ! R36   R(28,49)                1.8727                                         !
 ! R37   R(30,33)                1.1027                                         !
 ! R38   R(30,47)                1.1009                                         !
 ! R39   R(31,34)                1.0988                                         !
 ! R40   R(32,44)                1.0998                                         !
 ! R41   R(34,44)                1.522                                          !
 ! R42   R(34,46)                1.1011                                         !
 ! R43   R(35,37)                1.1027                                         !
 ! R44   R(36,62)                1.1555                                         !
 ! R45   R(37,40)                1.0987                                         !
 ! R46   R(37,51)                1.1017                                         !
 ! R47   R(38,39)                1.0991                                         !
 ! R48   R(39,41)                1.1026                                         !
 ! R49   R(39,54)                1.1                                            !
 ! R50   R(42,43)                1.3427                                         !
 ! R51   R(42,53)                1.3916                                         !
 ! R52   R(43,52)                1.3424                                         !
 ! R53   R(44,48)                1.1005                                         !
 ! R54   R(44,50)                1.1004                                         !
 ! R55   R(49,52)                1.5063                                         !
 ! R56   R(49,56)                1.1036                                         !
 ! R57   R(49,57)                1.1004                                         !
 ! R58   R(52,58)                1.394                                          !
 ! R59   R(53,55)                1.0906                                         !
 ! R60   R(53,59)                1.3928                                         !
 ! R61   R(58,59)                1.3923                                         !
 ! R62   R(58,60)                1.0905                                         !
 ! R63   R(59,61)                1.0916                                         !
 ! A1    A(1,2,3)              107.3121                                         !
 ! A2    A(1,2,4)              107.921                                          !
 ! A3    A(1,2,9)              108.8037                                         !
 ! A4    A(3,2,4)              109.2273                                         !
 ! A5    A(3,2,9)              113.2433                                         !
 ! A6    A(4,2,9)              110.161                                          !
 ! A7    A(2,9,11)             111.0836                                         !
 ! A8    A(2,9,15)             109.7509                                         !
 ! A9    A(2,9,21)             113.5141                                         !
 ! A10   A(11,9,15)            108.5087                                         !
 ! A11   A(11,9,21)            109.7381                                         !
 ! A12   A(15,9,21)            103.9152                                         !
 ! A13   A(5,12,10)            109.1613                                         !
 ! A14   A(5,12,14)            109.9292                                         !
 ! A15   A(5,12,23)            108.9564                                         !
 ! A16   A(10,12,14)           107.6741                                         !
 ! A17   A(10,12,23)           108.2703                                         !
 ! A18   A(14,12,23)           112.7766                                         !
 ! A19   A(7,16,13)            109.053                                          !
 ! A20   A(7,16,17)            107.5553                                         !
 ! A21   A(7,16,27)            112.6472                                         !
 ! A22   A(13,16,17)           107.9551                                         !
 ! A23   A(13,16,27)           110.789                                          !
 ! A24   A(17,16,27)           108.6823                                         !
 ! A25   A(6,19,8)             101.2343                                         !
 ! A26   A(6,19,28)             96.8829                                         !
 ! A27   A(6,19,36)             90.0573                                         !
 ! A28   A(8,19,28)             92.953                                          !
 ! A29   A(8,19,43)             84.6693                                         !
 ! A30   A(28,19,36)            94.4105                                         !
 ! A31   A(28,19,43)            81.3463                                         !
 ! A32   A(36,19,43)            84.323                                          !
 ! A33   A(9,21,22)            108.842                                          !
 ! A34   A(9,21,34)            114.1745                                         !
 ! A35   A(22,21,34)           111.832                                          !
 ! A36   A(18,22,21)           104.4197                                         !
 ! A37   A(18,22,29)           110.1745                                         !
 ! A38   A(18,22,42)           104.6568                                         !
 ! A39   A(21,22,29)           112.6127                                         !
 ! A40   A(21,22,42)           113.2658                                         !
 ! A41   A(29,22,42)           111.1601                                         !
 ! A42   A(12,23,26)           108.0773                                         !
 ! A43   A(12,23,28)           108.2132                                         !
 ! A44   A(12,23,37)           111.0098                                         !
 ! A45   A(26,23,28)           106.6524                                         !
 ! A46   A(26,23,37)           109.0292                                         !
 ! A47   A(28,23,37)           113.6343                                         !
 ! A48   A(20,26,23)           109.2606                                         !
 ! A49   A(20,26,24)           108.7287                                         !
 ! A50   A(20,26,45)           111.0979                                         !
 ! A51   A(23,26,24)           107.842                                          !
 ! A52   A(23,26,45)           112.6324                                         !
 ! A53   A(24,26,45)           107.1376                                         !
 ! A54   A(16,27,28)           107.997                                          !
 ! A55   A(16,27,30)           111.2858                                         !
 ! A56   A(16,27,39)           107.6224                                         !
 ! A57   A(28,27,30)           112.7922                                         !
 ! A58   A(28,27,39)           108.4024                                         !
 ! A59   A(30,27,39)           108.5782                                         !
 ! A60   A(19,28,23)           115.1184                                         !
 ! A61   A(19,28,27)           118.5141                                         !
 ! A62   A(19,28,49)            98.8692                                         !
 ! A63   A(23,28,27)           111.856                                          !
 ! A64   A(23,28,49)           105.1254                                         !
 ! A65   A(27,28,49)           104.8499                                         !
 ! A66   A(25,30,27)           113.3673                                         !
 ! A67   A(25,30,33)           107.4972                                         !
 ! A68   A(25,30,47)           108.36                                           !
 ! A69   A(27,30,33)           108.5042                                         !
 ! A70   A(27,30,47)           111.8974                                         !
 ! A71   A(33,30,47)           106.9294                                         !
 ! A72   A(21,34,31)           107.3589                                         !
 ! A73   A(21,34,44)           116.3521                                         !
 ! A74   A(21,34,46)           106.8751                                         !
 ! A75   A(31,34,44)           109.8674                                         !
 ! A76   A(31,34,46)           106.1988                                         !
 ! A77   A(44,34,46)           109.6795                                         !
 ! A78   A(23,37,35)           108.0539                                         !
 ! A79   A(23,37,40)           112.8856                                         !
 ! A80   A(23,37,51)           112.7481                                         !
 ! A81   A(35,37,40)           107.1378                                         !
 ! A82   A(35,37,51)           107.0738                                         !
 ! A83   A(40,37,51)           108.6295                                         !
 ! A84   A(27,39,38)           110.9411                                         !
 ! A85   A(27,39,41)           108.1441                                         !
 ! A86   A(27,39,54)           112.6672                                         !
 ! A87   A(38,39,41)           108.6705                                         !
 ! A88   A(38,39,54)           109.0828                                         !
 ! A89   A(41,39,54)           107.1894                                         !
 ! A90   A(22,42,43)           114.7908                                         !
 ! A91   A(22,42,53)           124.4926                                         !
 ! A92   A(43,42,53)           120.4015                                         !
 ! A93   A(19,43,42)           116.8437                                         !
 ! A94   A(19,43,52)           121.1812                                         !
 ! A95   A(42,43,52)           121.9746                                         !
 ! A96   A(32,44,34)           112.078                                          !
 ! A97   A(32,44,48)           107.983                                          !
 ! A98   A(32,44,50)           107.5297                                         !
 ! A99   A(34,44,48)           112.6348                                         !
 ! A100  A(34,44,50)           109.1361                                         !
 ! A101  A(48,44,50)           107.244                                          !
 ! A102  A(28,49,52)           111.3015                                         !
 ! A103  A(28,49,56)           105.3835                                         !
 ! A104  A(28,49,57)           112.9487                                         !
 ! A105  A(52,49,56)           108.974                                          !
 ! A106  A(52,49,57)           110.795                                          !
 ! A107  A(56,49,57)           107.1394                                         !
 ! A108  A(43,52,49)           116.7162                                         !
 ! A109  A(43,52,58)           120.1039                                         !
 ! A110  A(49,52,58)           123.1798                                         !
 ! A111  A(42,53,55)           120.0131                                         !
 ! A112  A(42,53,59)           118.7322                                         !
 ! A113  A(55,53,59)           121.2451                                         !
 ! A114  A(52,58,59)           118.939                                          !
 ! A115  A(52,58,60)           120.0063                                         !
 ! A116  A(59,58,60)           121.0545                                         !
 ! A117  A(53,59,58)           119.7926                                         !
 ! A118  A(53,59,61)           120.1696                                         !
 ! A119  A(58,59,61)           120.036                                          !
 ! A120  L(6,19,43,8,-1)       185.9036                                         !
 ! A121  L(8,19,36,6,-1)       191.2916                                         !
 ! A122  L(19,36,62,3,-1)      179.3311                                         !
 ! A123  L(6,19,43,8,-2)       178.637                                          !
 ! A124  L(8,19,36,6,-2)       171.1411                                         !
 ! A125  L(19,36,62,3,-2)      171.4806                                         !
 ! D1    D(1,2,9,11)           -61.7476                                         !
 ! D2    D(1,2,9,15)            58.2471                                         !
 ! D3    D(1,2,9,21)           174.0249                                         !
 ! D4    D(3,2,9,11)            57.4855                                         !
 ! D5    D(3,2,9,15)           177.4802                                         !
 ! D6    D(3,2,9,21)           -66.742                                          !
 ! D7    D(4,2,9,11)          -179.8655                                         !
 ! D8    D(4,2,9,15)           -59.8708                                         !
 ! D9    D(4,2,9,21)            55.907                                          !
 ! D10   D(2,9,21,22)         -179.5523                                         !
 ! D11   D(2,9,21,34)           54.7227                                         !
 ! D12   D(11,9,21,22)          55.4942                                         !
 ! D13   D(11,9,21,34)         -70.2309                                         !
 ! D14   D(15,9,21,22)         -60.3774                                         !
 ! D15   D(15,9,21,34)         173.8975                                         !
 ! D16   D(5,12,23,26)          59.1191                                         !
 ! D17   D(5,12,23,28)         -56.0154                                         !
 ! D18   D(5,12,23,37)         178.6417                                         !
 ! D19   D(10,12,23,26)        -59.4926                                         !
 ! D20   D(10,12,23,28)       -174.6271                                         !
 ! D21   D(10,12,23,37)         60.03                                           !
 ! D22   D(14,12,23,26)       -178.53                                           !
 ! D23   D(14,12,23,28)         66.3356                                         !
 ! D24   D(14,12,23,37)        -59.0073                                         !
 ! D25   D(7,16,27,28)         -70.6391                                         !
 ! D26   D(7,16,27,30)          53.6734                                         !
 ! D27   D(7,16,27,39)         172.5232                                         !
 ! D28   D(13,16,27,28)         51.8234                                         !
 ! D29   D(13,16,27,30)        176.1358                                         !
 ! D30   D(13,16,27,39)        -65.0143                                         !
 ! D31   D(17,16,27,28)        170.2773                                         !
 ! D32   D(17,16,27,30)        -65.4103                                         !
 ! D33   D(17,16,27,39)         53.4396                                         !
 ! D34   D(6,19,28,23)         -99.0224                                         !
 ! D35   D(6,19,28,27)          37.2484                                         !
 ! D36   D(6,19,28,49)         149.5804                                         !
 ! D37   D(8,19,28,23)           2.6738                                         !
 ! D38   D(8,19,28,27)         138.9447                                         !
 ! D39   D(8,19,28,49)        -108.7233                                         !
 ! D40   D(36,19,28,23)        170.3862                                         !
 ! D41   D(36,19,28,27)        -53.3429                                         !
 ! D42   D(36,19,28,49)         58.9891                                         !
 ! D43   D(43,19,28,23)         86.8223                                         !
 ! D44   D(43,19,28,27)       -136.9068                                         !
 ! D45   D(43,19,28,49)        -24.5748                                         !
 ! D46   D(8,19,43,42)         -66.783                                          !
 ! D47   D(8,19,43,52)         112.9734                                         !
 ! D48   D(28,19,43,42)       -160.5982                                         !
 ! D49   D(28,19,43,52)         19.1582                                         !
 ! D50   D(36,19,43,42)        104.0483                                         !
 ! D51   D(36,19,43,52)        -76.1953                                         !
 ! D52   D(9,21,22,18)          46.4425                                         !
 ! D53   D(9,21,22,29)         -73.0856                                         !
 ! D54   D(9,21,22,42)         159.7046                                         !
 ! D55   D(34,21,22,18)        173.5166                                         !
 ! D56   D(34,21,22,29)         53.9886                                         !
 ! D57   D(34,21,22,42)        -73.2213                                         !
 ! D58   D(9,21,34,31)         -67.9898                                         !
 ! D59   D(9,21,34,44)          55.5283                                         !
 ! D60   D(9,21,34,46)         178.4157                                         !
 ! D61   D(22,21,34,31)        167.8721                                         !
 ! D62   D(22,21,34,44)        -68.6098                                         !
 ! D63   D(22,21,34,46)         54.2776                                         !
 ! D64   D(18,22,42,43)         70.6805                                         !
 ! D65   D(18,22,42,53)       -102.8689                                         !
 ! D66   D(21,22,42,43)        -42.4381                                         !
 ! D67   D(21,22,42,53)        144.0125                                         !
 ! D68   D(29,22,42,43)       -170.406                                          !
 ! D69   D(29,22,42,53)         16.0446                                         !
 ! D70   D(12,23,26,20)        -59.1766                                         !
 ! D71   D(12,23,26,24)         58.8434                                         !
 ! D72   D(12,23,26,45)        176.8504                                         !
 ! D73   D(28,23,26,20)         56.9788                                         !
 ! D74   D(28,23,26,24)        174.9988                                         !
 ! D75   D(28,23,26,45)        -66.9942                                         !
 ! D76   D(37,23,26,20)       -179.942                                          !
 ! D77   D(37,23,26,24)        -61.9219                                         !
 ! D78   D(37,23,26,45)         56.085                                          !
 ! D79   D(12,23,28,19)         55.9136                                         !
 ! D80   D(12,23,28,27)        -83.2091                                         !
 ! D81   D(12,23,28,49)        163.5584                                         !
 ! D82   D(26,23,28,19)        -60.1509                                         !
 ! D83   D(26,23,28,27)        160.7263                                         !
 ! D84   D(26,23,28,49)         47.4939                                         !
 ! D85   D(37,23,28,19)        179.692                                          !
 ! D86   D(37,23,28,27)         40.5692                                         !
 ! D87   D(37,23,28,49)        -72.6632                                         !
 ! D88   D(12,23,37,35)        -64.1802                                         !
 ! D89   D(12,23,37,40)         54.1144                                         !
 ! D90   D(12,23,37,51)        177.6862                                         !
 ! D91   D(26,23,37,35)         54.7715                                         !
 ! D92   D(26,23,37,40)        173.0662                                         !
 ! D93   D(26,23,37,51)        -63.362                                          !
 ! D94   D(28,23,37,35)        173.5753                                         !
 ! D95   D(28,23,37,40)        -68.13                                           !
 ! D96   D(28,23,37,51)         55.4418                                         !
 ! D97   D(16,27,28,19)        -83.9091                                         !
 ! D98   D(16,27,28,23)         53.6871                                         !
 ! D99   D(16,27,28,49)        167.0907                                         !
 ! D100  D(30,27,28,19)        152.6874                                         !
 ! D101  D(30,27,28,23)        -69.7163                                         !
 ! D102  D(30,27,28,49)         43.6873                                         !
 ! D103  D(39,27,28,19)         32.4218                                         !
 ! D104  D(39,27,28,23)        170.018                                          !
 ! D105  D(39,27,28,49)        -76.5784                                         !
 ! D106  D(16,27,30,25)        -60.0431                                         !
 ! D107  D(16,27,30,33)         59.296                                          !
 ! D108  D(16,27,30,47)        177.0364                                         !
 ! D109  D(28,27,30,25)         61.5163                                         !
 ! D110  D(28,27,30,33)       -179.1447                                         !
 ! D111  D(28,27,30,47)        -61.4042                                         !
 ! D112  D(39,27,30,25)       -178.3191                                         !
 ! D113  D(39,27,30,33)        -58.98                                           !
 ! D114  D(39,27,30,47)         58.7605                                         !
 ! D115  D(16,27,39,38)         55.8413                                         !
 ! D116  D(16,27,39,41)        -63.2438                                         !
 ! D117  D(16,27,39,54)        178.4692                                         !
 ! D118  D(28,27,39,38)        -60.7315                                         !
 ! D119  D(28,27,39,41)       -179.8166                                         !
 ! D120  D(28,27,39,54)         61.8965                                         !
 ! D121  D(30,27,39,38)        176.4119                                         !
 ! D122  D(30,27,39,41)         57.3269                                         !
 ! D123  D(30,27,39,54)        -60.9601                                         !
 ! D124  D(19,28,49,52)         32.8889                                         !
 ! D125  D(19,28,49,56)        -85.0953                                         !
 ! D126  D(19,28,49,57)        158.2626                                         !
 ! D127  D(23,28,49,52)        -86.2693                                         !
 ! D128  D(23,28,49,56)        155.7465                                         !
 ! D129  D(23,28,49,57)         39.1044                                         !
 ! D130  D(27,28,49,52)        155.6557                                         !
 ! D131  D(27,28,49,56)         37.6715                                         !
 ! D132  D(27,28,49,57)        -78.9706                                         !
 ! D133  D(21,34,44,32)        -62.4839                                         !
 ! D134  D(21,34,44,48)         59.5281                                         !
 ! D135  D(21,34,44,50)        178.5177                                         !
 ! D136  D(31,34,44,32)         59.7263                                         !
 ! D137  D(31,34,44,48)       -178.2617                                         !
 ! D138  D(31,34,44,50)        -59.2721                                         !
 ! D139  D(46,34,44,32)        176.1025                                         !
 ! D140  D(46,34,44,48)        -61.8855                                         !
 ! D141  D(46,34,44,50)         57.1041                                         !
 ! D142  D(22,42,43,19)          8.6558                                         !
 ! D143  D(22,42,43,52)       -171.0985                                         !
 ! D144  D(53,42,43,19)       -177.5072                                         !
 ! D145  D(53,42,43,52)          2.7385                                         !
 ! D146  D(22,42,53,55)         -7.709                                          !
 ! D147  D(22,42,53,59)        171.1762                                         !
 ! D148  D(43,42,53,55)        179.0823                                         !
 ! D149  D(43,42,53,59)         -2.0326                                         !
 ! D150  D(19,43,52,49)         -1.1759                                         !
 ! D151  D(19,43,52,58)        178.9534                                         !
 ! D152  D(42,43,52,49)        178.5678                                         !
 ! D153  D(42,43,52,58)         -1.3028                                         !
 ! D154  D(28,49,52,43)        -23.2663                                         !
 ! D155  D(28,49,52,58)        156.6                                            !
 ! D156  D(56,49,52,43)         92.5286                                         !
 ! D157  D(56,49,52,58)        -87.6052                                         !
 ! D158  D(57,49,52,43)       -149.8313                                         !
 ! D159  D(57,49,52,58)         30.0349                                         !
 ! D160  D(43,52,58,59)         -0.7815                                         !
 ! D161  D(43,52,58,60)        179.3835                                         !
 ! D162  D(49,52,58,59)        179.3566                                         !
 ! D163  D(49,52,58,60)         -0.4784                                         !
 ! D164  D(42,53,59,58)         -0.0203                                         !
 ! D165  D(42,53,59,61)       -179.5305                                         !
 ! D166  D(55,53,59,58)        178.8506                                         !
 ! D167  D(55,53,59,61)         -0.6597                                         !
 ! D168  D(52,58,59,53)          1.3956                                         !
 ! D169  D(52,58,59,61)       -179.0935                                         !
 ! D170  D(60,58,59,53)       -178.7712                                         !
 ! D171  D(60,58,59,61)          0.7397                                         !
 --------------------------------------------------------------------------------
 Stoichiometry    C20H35N2O3PRu(3)
 Framework group  C1[X(C20H35N2O3PRu)]
 Deg. of freedom   180
 Full point group                 C1      NOp   1
 Largest Abelian subgroup         C1      NOp   1
 Largest concise Abelian subgroup C1      NOp   1
                         Standard orientation:                         
 ---------------------------------------------------------------------
 Center     Atomic      Atomic             Coordinates (Angstroms)
 Number     Number       Type             X           Y           Z
 ---------------------------------------------------------------------
      1          1           0       -3.371701   -3.454093    1.935211
      2          6           0       -3.146172   -2.831664    1.056726
      3          1           0       -3.896272   -3.068517    0.285997
      4          1           0       -2.146781   -3.113637    0.689077
      5          1           0        1.432828   -0.738955    2.714096
      6          8           0        0.005037   -2.505450    0.263006
      7          1           0        4.240109   -1.780823    0.625149
      8          8           0       -0.446426   -0.219436    1.938659
      9          6           0       -3.157230   -1.376841    1.473820
     10          1           0        2.862299   -0.052987    3.560564
     11          1           0       -4.155758   -1.077341    1.848825
     12          6           0        2.492770   -0.457556    2.603006
     13          1           0        2.729154   -2.700381    0.343317
     14          1           0        3.092254   -1.345012    2.362680
     15          1           0       -2.418703   -1.213613    2.275970
     16          6           0        3.557469   -2.164043   -0.145119
     17          1           0        4.119073   -2.889884   -0.755794
     18          1           0       -2.271150    0.859624    1.906648
     19         44           0       -0.354623   -0.697124    0.137906
     20          1           0        0.715693    1.515875    2.123373
     21          7           0       -2.729052   -0.454000    0.403802
     22          6           0       -2.767686    0.921469    0.919738
     23          6           0        2.607440    0.641261    1.540983
     24          1           0        2.149543    2.167941    2.978091
     25          1           0        4.795888    0.249304   -0.925104
     26          6           0        1.762873    1.836649    1.999801
     27          6           0        3.024337   -1.060426   -1.062081
     28         15           0        1.820041    0.002577   -0.059199
     29          1           0       -3.796536    1.302649    1.034684
     30          6           0        4.166566   -0.245894   -1.673149
     31          1           0       -3.235972   -1.567956   -1.282320
     32          1           0       -5.445233   -1.228849   -0.107925
     33          1           0        4.812501   -0.927682   -2.250883
     34          6           0       -3.489270   -0.590152   -0.849883
     35          1           0        4.385082    1.549492    2.320687
     36          6           0       -0.627070   -0.882147   -1.782088
     37          6           0        4.057392    1.091181    1.372839
     38          1           0        1.453590   -2.382137   -1.794197
     39          6           0        2.246431   -1.734253   -2.193884
     40          1           0        4.741741    0.257740    1.162605
     41          1           0        2.950672   -2.354395   -2.772787
     42          6           0       -1.922425    1.874763    0.128778
     43          7           0       -0.719466    1.397228   -0.228661
     44          6           0       -5.000797   -0.448089   -0.742241
     45          1           0        1.836169    2.695503    1.314092
     46          1           0       -3.094501    0.165479   -1.546750
     47          1           0        3.796833    0.517190   -2.375225
     48          1           0       -5.306800    0.530178   -0.341609
     49          6           0        1.538526    1.528245   -1.108100
     50          1           0       -5.444354   -0.543235   -1.744769
     51          1           0        4.178549    1.853007    0.586303
     52          6           0        0.219609    2.179562   -0.783739
     53          6           0       -2.255594    3.202576   -0.121037
     54          1           0        1.801261   -1.010061   -2.892050
     55          1           0       -3.239944    3.579877    0.158423
     56          1           0        1.513303    1.166378   -2.150381
     57          1           0        2.361287    2.255498   -1.037142
     58          6           0       -0.047891    3.525243   -1.030639
     59          6           0       -1.303542    4.032767   -0.707861
     60          1           0        0.719580    4.161726   -1.472369
     61          1           0       -1.537246    5.080259   -0.907216
     62          8           0       -0.885922   -0.860347   -2.907961
 ---------------------------------------------------------------------
 Rotational constants (GHZ):           0.2520052           0.1552340           0.1340440
 General basis read from cards:  (5D, 7F)
 ======================================================================================================
                                       Pseudopotential Parameters
 ======================================================================================================
  Center     Atomic      Valence      Angular      Power
  Number     Number     Electrons     Momentum     of R      Exponent        Coefficient   SO-Coeffient
 ======================================================================================================
    1          1
                                   No pseudopotential on this center.
    2          6
                                   No pseudopotential on this center.
    3          1
                                   No pseudopotential on this center.
    4          1
                                   No pseudopotential on this center.
    5          1
                                   No pseudopotential on this center.
    6          8
                                   No pseudopotential on this center.
    7          1
                                   No pseudopotential on this center.
    8          8
                                   No pseudopotential on this center.
    9          6
                                   No pseudopotential on this center.
   10          1
                                   No pseudopotential on this center.
   11          1
                                   No pseudopotential on this center.
   12          6
                                   No pseudopotential on this center.
   13          1
                                   No pseudopotential on this center.
   14          1
                                   No pseudopotential on this center.
   15          1
                                   No pseudopotential on this center.
   16          6
                                   No pseudopotential on this center.
   17          1
                                   No pseudopotential on this center.
   18          1
                                   No pseudopotential on this center.
   19         44           16
                                      G and up 
                                                     2        1.0000000        0.00000000    0.00000000
                                      S - G
                                                     2       11.1052690      209.82297100    0.00000000
                                                     2        5.4147450       30.65472600    0.00000000
                                      P - G
                                                     2        9.7712710      146.33618200    0.00000000
                                                     2        5.0739910       24.12787700    0.00000000
                                      D - G
                                                     2        7.6714230       67.51589700    0.00000000
                                                     2        4.1365650        9.87010400    0.00000000
                                      F - G
                                                     2       11.3600000      -28.34061600    0.00000000
                                                     2        5.6800000       -4.94462900    0.00000000
   20          1
                                   No pseudopotential on this center.
   21          7
                                   No pseudopotential on this center.
   22          6
                                   No pseudopotential on this center.
   23          6
                                   No pseudopotential on this center.
   24          1
                                   No pseudopotential on this center.
   25          1
                                   No pseudopotential on this center.
   26          6
                                   No pseudopotential on this center.
   27          6
                                   No pseudopotential on this center.
   28         15
                                   No pseudopotential on this center.
   29          1
                                   No pseudopotential on this center.
   30          6
                                   No pseudopotential on this center.
   31          1
                                   No pseudopotential on this center.
   32          1
                                   No pseudopotential on this center.
   33          1
                                   No pseudopotential on this center.
   34          6
                                   No pseudopotential on this center.
   35          1
                                   No pseudopotential on this center.
   36          6
                                   No pseudopotential on this center.
   37          6
                                   No pseudopotential on this center.
   38          1
                                   No pseudopotential on this center.
   39          6
                                   No pseudopotential on this center.
   40          1
                                   No pseudopotential on this center.
   41          1
                                   No pseudopotential on this center.
   42          6
                                   No pseudopotential on this center.
   43          7
                                   No pseudopotential on this center.
   44          6
                                   No pseudopotential on this center.
   45          1
                                   No pseudopotential on this center.
   46          1
                                   No pseudopotential on this center.
   47          1
                                   No pseudopotential on this center.
   48          1
                                   No pseudopotential on this center.
   49          6
                                   No pseudopotential on this center.
   50          1
                                   No pseudopotential on this center.
   51          1
                                   No pseudopotential on this center.
   52          6
                                   No pseudopotential on this center.
   53          6
                                   No pseudopotential on this center.
   54          1
                                   No pseudopotential on this center.
   55          1
                                   No pseudopotential on this center.
   56          1
                                   No pseudopotential on this center.
   57          1
                                   No pseudopotential on this center.
   58          6
                                   No pseudopotential on this center.
   59          6
                                   No pseudopotential on this center.
   60          1
                                   No pseudopotential on this center.
   61          1
                                   No pseudopotential on this center.
   62          8
                                   No pseudopotential on this center.
 ======================================================================================================
 There are  1478 symmetry adapted cartesian basis functions of A   symmetry.
 There are  1310 symmetry adapted basis functions of A   symmetry.
  1310 basis functions,  2055 primitive gaussians,  1478 cartesian basis functions
   113 alpha electrons      111 beta electrons
       nuclear repulsion energy      3444.0787930074 Hartrees.
 NAtoms=   62 NActive=   62 NUniq=   62 SFac= 1.00D+00 NAtFMM=   60 NAOKFM=T Big=T
 Integral buffers will be    131072 words long.
 Raffenetti 2 integral format.
 Two-electron integral symmetry is turned on.
 Nuclear repulsion after empirical dispersion term =     3443.9843715801 Hartrees.
 ------------------------------------------------------------------------------
 Polarizable Continuum Model (PCM)
 =================================
 Model                : PCM.
 Atomic radii         : SMD-Coulomb.
 Polarization charges : Total charges.
 Charge compensation  : None.
 Solution method      : On-the-fly selection.
 Cavity type          : VdW (van der Waals Surface) (Alpha=1.000).
 Cavity algorithm     : GePol (No added spheres)
                        Default sphere list used, NSphG=   62.
                        Lebedev-Laikov grids with approx.  5.0 points / Ang**2.
                        Smoothing algorithm: York/Karplus (Gamma=1.0000).
                        Polarization charges: spherical gaussians, with
                                              point-specific exponents (IZeta= 3).
                        Self-potential: point-specific (ISelfS= 7).
                        Self-field    : sphere-specific E.n sum rule (ISelfD= 2).
 Solvent              : Water, Eps=  78.355300 Eps(inf)=   1.777849
 ------------------------------------------------------------------------------
 ------------------------------------------------------------------------------
 Atomic radii for non-electrostatic terms: SMD-CDS.
 ------------------------------------------------------------------------------
 Nuclear repulsion after PCM non-electrostatic terms =     3444.0007846746 Hartrees.
 One-electron integrals computed using PRISM.
   1 Symmetry operations used in ECPInt.
 ECPInt:  NShTT=  118341 NPrTT=  428598 LenC2=  101721 LenP2D=  239794.
 LDataN:  DoStor=T MaxTD1= 7 Len=  274
 Number of processors reduced to  11 by ecpmxn.
 NBasis=  1310 RedAO= T EigKep=  3.93D-05  NBF=  1310
 NBsUse=  1310 1.00D-06 EigRej= -1.00D+00 NBFU=  1310
 Defaulting to unpruned grid for atomic number  44.
 ExpMin= 1.60D-02 ExpMax= 3.12D+05 ExpMxC= 9.87D+02 IAcc=3 IRadAn=         5 AccDes= 0.00D+00
 Harris functional with IExCor= 1009 and IRadAn=       5 diagonalized for initial guess.
 HarFok:  IExCor= 1009 AccDes= 0.00D+00 IRadAn=         5 IDoV= 1 UseB2=F ITyADJ=14
 ICtDFT=  3500011 ScaDFX=  1.000000  1.000000  1.000000  1.000000
 Defaulting to unpruned grid for atomic number  44.
 FoFCou: FMM=F IPFlag=           0 FMFlag=      100000 FMFlg1=        2001
         NFxFlg=           0 DoJE=T BraDBF=F KetDBF=T FulRan=T
         wScrn=  0.000000 ICntrl=       500 IOpCl=  0 I1Cent=   200000004 NGrid=           0
         NMat0=    1 NMatS0=      1 NMatT0=    0 NMatD0=    1 NMtDS0=    0 NMtDT0=    0
 Petite list used in FoFCou.
 Initial guess <Sx>= 0.0000 <Sy>= 0.0000 <Sz>= 1.0000 <S**2>= 2.0000 S= 1.0000
 Requested convergence on RMS density matrix=1.00D-08 within 128 cycles.
 Requested convergence on MAX density matrix=1.00D-06.
 Requested convergence on             energy=1.00D-06.
 No special actions if energy rises.
 Defaulting to unpruned grid for atomic number  44.
 Defaulting to unpruned grid for atomic number  44.
 Defaulting to unpruned grid for atomic number  44.
 Defaulting to unpruned grid for atomic number  44.
 Defaulting to unpruned grid for atomic number  44.
 Defaulting to unpruned grid for atomic number  44.
 Defaulting to unpruned grid for atomic number  44.
 Defaulting to unpruned grid for atomic number  44.
 Defaulting to unpruned grid for atomic number  44.
 Defaulting to unpruned grid for atomic number  44.
 Defaulting to unpruned grid for atomic number  44.
 Defaulting to unpruned grid for atomic number  44.
 Defaulting to unpruned grid for atomic number  44.
 Defaulting to unpruned grid for atomic number  44.
 Defaulting to unpruned grid for atomic number  44.
 Defaulting to unpruned grid for atomic number  44.
 Defaulting to unpruned grid for atomic number  44.
 Defaulting to unpruned grid for atomic number  44.
 Defaulting to unpruned grid for atomic number  44.
 Defaulting to unpruned grid for atomic number  44.
 Inv3:  Mode=1 IEnd=    44930700.
 Iteration    1 A*A^-1 deviation from unit magnitude is 5.33D-15 for   3851.
 Iteration    1 A*A^-1 deviation from orthogonality  is 3.24D-15 for   1885   1405.
 Iteration    1 A^-1*A deviation from unit magnitude is 5.33D-15 for   3848.
 Iteration    1 A^-1*A deviation from orthogonality  is 3.44D-15 for   3571   2811.
 Restarting incremental Fock formation.
 Error on total polarization charges =  0.07938
 SCF Done:  E(UPBE1PBE) =  -1553.68456746     A.U. after   28 cycles
            NFock= 28  Conv=0.32D-08     -V/T= 2.0473
 <Sx>= 0.0000 <Sy>= 0.0000 <Sz>= 1.0000 <S**2>= 2.0230 S= 1.0077
 <L.S>= 0.000000000000E+00
 SMD-CDS (non-electrostatic) energy       (kcal/mol) =      10.30
 (included in total energy above)
 Annihilation of the first spin contaminant:
 S**2 before annihilation     2.0230,   after     2.0003

 **********************************************************************

            Population analysis using the SCF density.

 **********************************************************************

 Orbital symmetries:
 Alpha Orbitals:
       Occupied  (A) (A) (A) (A) (A) (A) (A) (A) (A) (A) (A) (A)
                 (A) (A) (A) (A) (A) (A) (A) (A) (A) (A) (A) (A)
                 (A) (A) (A) (A) (A) (A) (A) (A) (A) (A) (A) (A)
                 (A) (A) (A) (A) (A) (A) (A) (A) (A) (A) (A) (A)
                 (A) (A) (A) (A) (A) (A) (A) (A) (A) (A) (A) (A)
                 (A) (A) (A) (A) (A) (A) (A) (A) (A) (A) (A) (A)
                 (A) (A) (A) (A) (A) (A) (A) (A) (A) (A) (A) (A)
                 (A) (A) (A) (A) (A) (A) (A) (A) (A) (A) (A) (A)
                 (A) (A) (A) (A) (A) (A) (A) (A) (A) (A) (A) (A)
                 (A) (A) (A) (A) (A)
       Virtual   (A) (A) (A) (A) (A) (A) (A) (A) (A) (A) (A) (A)
                 (A) (A) (A) (A) (A) (A) (A) (A) (A) (A) (A) (A)
                 (A) (A) (A) (A) (A) (A) (A) (A) (A) (A) (A) (A)
                 (A) (A) (A) (A) (A) (A) (A) (A) (A) (A) (A) (A)
                 (A) (A) (A) (A) (A) (A) (A) (A) (A) (A) (A) (A)
                 (A) (A) (A) (A) (A) (A) (A) (A) (A) (A) (A) (A)
                 (A) (A) (A) (A) (A) (A) (A) (A) (A) (A) (A) (A)
                 (A) (A) (A) (A) (A) (A) (A) (A) (A) (A) (A) (A)
                 (A) (A) (A) (A) (A) (A) (A) (A) (A) (A) (A) (A)
                 (A) (A) (A) (A) (A) (A) (A) (A) (A) (A) (A) (A)
                 (A) (A) (A) (A) (A) (A) (A) (A) (A) (A) (A) (A)
                 (A) (A) (A) (A) (A) (A) (A) (A) (A) (A) (A) (A)
                 (A) (A) (A) (A) (A) (A) (A) (A) (A) (A) (A) (A)
                 (A) (A) (A) (A) (A) (A) (A) (A) (A) (A) (A) (A)
                 (A) (A) (A) (A) (A) (A) (A) (A) (A) (A) (A) (A)
                 (A) (A) (A) (A) (A) (A) (A) (A) (A) (A) (A) (A)
                 (A) (A) (A) (A) (A) (A) (A) (A) (A) (A) (A) (A)
                 (A) (A) (A) (A) (A) (A) (A) (A) (A) (A) (A) (A)
                 (A) (A) (A) (A) (A) (A) (A) (A) (A) (A) (A) (A)
                 (A) (A) (A) (A) (A) (A) (A) (A) (A) (A) (A) (A)
                 (A) (A) (A) (A) (A) (A) (A) (A) (A) (A) (A) (A)
                 (A) (A) (A) (A) (A) (A) (A) (A) (A) (A) (A) (A)
                 (A) (A) (A) (A) (A) (A) (A) (A) (A) (A) (A) (A)
                 (A) (A) (A) (A) (A) (A) (A) (A) (A) (A) (A) (A)
                 (A) (A) (A) (A) (A) (A) (A) (A) (A) (A) (A) (A)
                 (A) (A) (A) (A) (A) (A) (A) (A) (A) (A) (A) (A)
                 (A) (A) (A) (A) (A) (A) (A) (A) (A) (A) (A) (A)
                 (A) (A) (A) (A) (A) (A) (A) (A) (A) (A) (A) (A)
                 (A) (A) (A) (A) (A) (A) (A) (A) (A) (A) (A) (A)
                 (A) (A) (A) (A) (A) (A) (A) (A) (A) (A) (A) (A)
                 (A) (A) (A) (A) (A) (A) (A) (A) (A) (A) (A) (A)
                 (A) (A) (A) (A) (A) (A) (A) (A) (A) (A) (A) (A)
                 (A) (A) (A) (A) (A) (A) (A) (A) (A) (A) (A) (A)
                 (A) (A) (A) (A) (A) (A) (A) (A) (A) (A) (A) (A)
                 (A) (A) (A) (A) (A) (A) (A) (A) (A) (A) (A) (A)
                 (A) (A) (A) (A) (A) (A) (A) (A) (A) (A) (A) (A)
                 (A) (A) (A) (A) (A) (A) (A) (A) (A) (A) (A) (A)
                 (A) (A) (A) (A) (A) (A) (A) (A) (A) (A) (A) (A)
                 (A) (A) (A) (A) (A) (A) (A) (A) (A) (A) (A) (A)
                 (A) (A) (A) (A) (A) (A) (A) (A) (A) (A) (A) (A)
                 (A) (A) (A) (A) (A) (A) (A) (A) (A) (A) (A) (A)
                 (A) (A) (A) (A) (A) (A) (A) (A) (A) (A) (A) (A)
                 (A) (A) (A) (A) (A) (A) (A) (A) (A) (A) (A) (A)
                 (A) (A) (A) (A) (A) (A) (A) (A) (A) (A) (A) (A)
                 (A) (A) (A) (A) (A) (A) (A) (A) (A) (A) (A) (A)
                 (A) (A) (A) (A) (A) (A) (A) (A) (A) (A) (A) (A)
                 (A) (A) (A) (A) (A) (A) (A) (A) (A) (A) (A) (A)
                 (A) (A) (A) (A) (A) (A) (A) (A) (A) (A) (A) (A)
                 (A) (A) (A) (A) (A) (A) (A) (A) (A) (A) (A) (A)
                 (A) (A) (A) (A) (A) (A) (A) (A) (A) (A) (A) (A)
                 (A) (A) (A) (A) (A) (A) (A) (A) (A) (A) (A) (A)
                 (A) (A) (A) (A) (A) (A) (A) (A) (A) (A) (A) (A)
                 (A) (A) (A) (A) (A) (A) (A) (A) (A) (A) (A) (A)
                 (A) (A) (A) (A) (A) (A) (A) (A) (A) (A) (A) (A)
                 (A) (A) (A) (A) (A) (A) (A) (A) (A) (A) (A) (A)
                 (A) (A) (A) (A) (A) (A) (A) (A) (A) (A) (A) (A)
                 (A) (A) (A) (A) (A) (A) (A) (A) (A) (A) (A) (A)
                 (A) (A) (A) (A) (A) (A) (A) (A) (A) (A) (A) (A)
                 (A) (A) (A) (A) (A) (A) (A) (A) (A) (A) (A) (A)
                 (A) (A) (A) (A) (A) (A) (A) (A) (A) (A) (A) (A)
                 (A) (A) (A) (A) (A) (A) (A) (A) (A) (A) (A) (A)
                 (A) (A) (A) (A) (A) (A) (A) (A) (A) (A) (A) (A)
                 (A) (A) (A) (A) (A) (A) (A) (A) (A) (A) (A) (A)
                 (A) (A) (A) (A) (A) (A) (A) (A) (A) (A) (A) (A)
                 (A) (A) (A) (A) (A) (A) (A) (A) (A) (A) (A) (A)
                 (A) (A) (A) (A) (A) (A) (A) (A) (A) (A) (A) (A)
                 (A) (A) (A) (A) (A) (A) (A) (A) (A) (A) (A) (A)
                 (A) (A) (A) (A) (A) (A) (A) (A) (A) (A) (A) (A)
                 (A) (A) (A) (A) (A) (A) (A) (A) (A) (A) (A) (A)
                 (A) (A) (A) (A) (A) (A) (A) (A) (A) (A) (A) (A)
                 (A) (A) (A) (A) (A) (A) (A) (A) (A) (A) (A) (A)
                 (A) (A) (A) (A) (A) (A) (A) (A) (A) (A) (A) (A)
                 (A) (A) (A) (A) (A) (A) (A) (A) (A) (A) (A) (A)
                 (A) (A) (A) (A) (A) (A) (A) (A) (A) (A) (A) (A)
                 (A) (A) (A) (A) (A) (A) (A) (A) (A) (A) (A) (A)
                 (A) (A) (A) (A) (A) (A) (A) (A) (A) (A) (A) (A)
                 (A) (A) (A) (A) (A) (A) (A) (A) (A) (A) (A) (A)
                 (A) (A) (A) (A) (A) (A) (A) (A) (A) (A) (A) (A)
                 (A) (A) (A) (A) (A) (A) (A) (A) (A) (A) (A) (A)
                 (A) (A) (A) (A) (A) (A) (A) (A) (A) (A) (A) (A)
                 (A) (A) (A) (A) (A) (A) (A) (A) (A) (A) (A) (A)
                 (A) (A) (A) (A) (A) (A) (A) (A) (A) (A) (A) (A)
                 (A) (A) (A) (A) (A) (A) (A) (A) (A) (A) (A) (A)
                 (A) (A) (A) (A) (A) (A) (A) (A) (A) (A) (A) (A)
                 (A) (A) (A) (A) (A) (A) (A) (A) (A) (A) (A) (A)
                 (A) (A) (A) (A) (A) (A) (A) (A) (A) (A) (A) (A)
                 (A) (A) (A) (A) (A) (A) (A) (A) (A) (A) (A) (A)
                 (A) (A) (A) (A) (A) (A) (A) (A) (A) (A) (A) (A)
                 (A) (A) (A) (A) (A) (A) (A) (A) (A) (A) (A) (A)
                 (A) (A) (A) (A) (A) (A) (A) (A) (A) (A) (A) (A)
                 (A) (A) (A) (A) (A) (A) (A) (A) (A) (A) (A) (A)
                 (A) (A) (A) (A) (A) (A) (A) (A) (A) (A) (A) (A)
                 (A) (A) (A) (A) (A) (A) (A) (A) (A) (A) (A) (A)
                 (A) (A) (A) (A) (A) (A) (A) (A) (A) (A) (A) (A)
                 (A) (A) (A) (A) (A) (A) (A) (A) (A) (A) (A) (A)
                 (A) (A) (A) (A) (A) (A) (A) (A) (A) (A) (A) (A)
                 (A) (A) (A) (A) (A) (A) (A) (A) (A) (A) (A) (A)
                 (A) (A) (A) (A) (A) (A) (A) (A) (A) (A) (A) (A)
                 (A) (A) (A) (A) (A) (A) (A) (A) (A) (A) (A) (A)
                 (A) (A) (A) (A) (A) (A) (A) (A) (A)
 Beta  Orbitals:
       Occupied  (A) (A) (A) (A) (A) (A) (A) (A) (A) (A) (A) (A)
                 (A) (A) (A) (A) (A) (A) (A) (A) (A) (A) (A) (A)
                 (A) (A) (A) (A) (A) (A) (A) (A) (A) (A) (A) (A)
                 (A) (A) (A) (A) (A) (A) (A) (A) (A) (A) (A) (A)
                 (A) (A) (A) (A) (A) (A) (A) (A) (A) (A) (A) (A)
                 (A) (A) (A) (A) (A) (A) (A) (A) (A) (A) (A) (A)
                 (A) (A) (A) (A) (A) (A) (A) (A) (A) (A) (A) (A)
                 (A) (A) (A) (A) (A) (A) (A) (A) (A) (A) (A) (A)
                 (A) (A) (A) (A) (A) (A) (A) (A) (A) (A) (A) (A)
                 (A) (A) (A)
       Virtual   (A) (A) (A) (A) (A) (A) (A) (A) (A) (A) (A) (A)
                 (A) (A) (A) (A) (A) (A) (A) (A) (A) (A) (A) (A)
                 (A) (A) (A) (A) (A) (A) (A) (A) (A) (A) (A) (A)
                 (A) (A) (A) (A) (A) (A) (A) (A) (A) (A) (A) (A)
                 (A) (A) (A) (A) (A) (A) (A) (A) (A) (A) (A) (A)
                 (A) (A) (A) (A) (A) (A) (A) (A) (A) (A) (A) (A)
                 (A) (A) (A) (A) (A) (A) (A) (A) (A) (A) (A) (A)
                 (A) (A) (A) (A) (A) (A) (A) (A) (A) (A) (A) (A)
                 (A) (A) (A) (A) (A) (A) (A) (A) (A) (A) (A) (A)
                 (A) (A) (A) (A) (A) (A) (A) (A) (A) (A) (A) (A)
                 (A) (A) (A) (A) (A) (A) (A) (A) (A) (A) (A) (A)
                 (A) (A) (A) (A) (A) (A) (A) (A) (A) (A) (A) (A)
                 (A) (A) (A) (A) (A) (A) (A) (A) (A) (A) (A) (A)
                 (A) (A) (A) (A) (A) (A) (A) (A) (A) (A) (A) (A)
                 (A) (A) (A) (A) (A) (A) (A) (A) (A) (A) (A) (A)
                 (A) (A) (A) (A) (A) (A) (A) (A) (A) (A) (A) (A)
                 (A) (A) (A) (A) (A) (A) (A) (A) (A) (A) (A) (A)
                 (A) (A) (A) (A) (A) (A) (A) (A) (A) (A) (A) (A)
                 (A) (A) (A) (A) (A) (A) (A) (A) (A) (A) (A) (A)
                 (A) (A) (A) (A) (A) (A) (A) (A) (A) (A) (A) (A)
                 (A) (A) (A) (A) (A) (A) (A) (A) (A) (A) (A) (A)
                 (A) (A) (A) (A) (A) (A) (A) (A) (A) (A) (A) (A)
                 (A) (A) (A) (A) (A) (A) (A) (A) (A) (A) (A) (A)
                 (A) (A) (A) (A) (A) (A) (A) (A) (A) (A) (A) (A)
                 (A) (A) (A) (A) (A) (A) (A) (A) (A) (A) (A) (A)
                 (A) (A) (A) (A) (A) (A) (A) (A) (A) (A) (A) (A)
                 (A) (A) (A) (A) (A) (A) (A) (A) (A) (A) (A) (A)
                 (A) (A) (A) (A) (A) (A) (A) (A) (A) (A) (A) (A)
                 (A) (A) (A) (A) (A) (A) (A) (A) (A) (A) (A) (A)
                 (A) (A) (A) (A) (A) (A) (A) (A) (A) (A) (A) (A)
                 (A) (A) (A) (A) (A) (A) (A) (A) (A) (A) (A) (A)
                 (A) (A) (A) (A) (A) (A) (A) (A) (A) (A) (A) (A)
                 (A) (A) (A) (A) (A) (A) (A) (A) (A) (A) (A) (A)
                 (A) (A) (A) (A) (A) (A) (A) (A) (A) (A) (A) (A)
                 (A) (A) (A) (A) (A) (A) (A) (A) (A) (A) (A) (A)
                 (A) (A) (A) (A) (A) (A) (A) (A) (A) (A) (A) (A)
                 (A) (A) (A) (A) (A) (A) (A) (A) (A) (A) (A) (A)
                 (A) (A) (A) (A) (A) (A) (A) (A) (A) (A) (A) (A)
                 (A) (A) (A) (A) (A) (A) (A) (A) (A) (A) (A) (A)
                 (A) (A) (A) (A) (A) (A) (A) (A) (A) (A) (A) (A)
                 (A) (A) (A) (A) (A) (A) (A) (A) (A) (A) (A) (A)
                 (A) (A) (A) (A) (A) (A) (A) (A) (A) (A) (A) (A)
                 (A) (A) (A) (A) (A) (A) (A) (A) (A) (A) (A) (A)
                 (A) (A) (A) (A) (A) (A) (A) (A) (A) (A) (A) (A)
                 (A) (A) (A) (A) (A) (A) (A) (A) (A) (A) (A) (A)
                 (A) (A) (A) (A) (A) (A) (A) (A) (A) (A) (A) (A)
                 (A) (A) (A) (A) (A) (A) (A) (A) (A) (A) (A) (A)
                 (A) (A) (A) (A) (A) (A) (A) (A) (A) (A) (A) (A)
                 (A) (A) (A) (A) (A) (A) (A) (A) (A) (A) (A) (A)
                 (A) (A) (A) (A) (A) (A) (A) (A) (A) (A) (A) (A)
                 (A) (A) (A) (A) (A) (A) (A) (A) (A) (A) (A) (A)
                 (A) (A) (A) (A) (A) (A) (A) (A) (A) (A) (A) (A)
                 (A) (A) (A) (A) (A) (A) (A) (A) (A) (A) (A) (A)
                 (A) (A) (A) (A) (A) (A) (A) (A) (A) (A) (A) (A)
                 (A) (A) (A) (A) (A) (A) (A) (A) (A) (A) (A) (A)
                 (A) (A) (A) (A) (A) (A) (A) (A) (A) (A) (A) (A)
                 (A) (A) (A) (A) (A) (A) (A) (A) (A) (A) (A) (A)
                 (A) (A) (A) (A) (A) (A) (A) (A) (A) (A) (A) (A)
                 (A) (A) (A) (A) (A) (A) (A) (A) (A) (A) (A) (A)
                 (A) (A) (A) (A) (A) (A) (A) (A) (A) (A) (A) (A)
                 (A) (A) (A) (A) (A) (A) (A) (A) (A) (A) (A) (A)
                 (A) (A) (A) (A) (A) (A) (A) (A) (A) (A) (A) (A)
                 (A) (A) (A) (A) (A) (A) (A) (A) (A) (A) (A) (A)
                 (A) (A) (A) (A) (A) (A) (A) (A) (A) (A) (A) (A)
                 (A) (A) (A) (A) (A) (A) (A) (A) (A) (A) (A) (A)
                 (A) (A) (A) (A) (A) (A) (A) (A) (A) (A) (A) (A)
                 (A) (A) (A) (A) (A) (A) (A) (A) (A) (A) (A) (A)
                 (A) (A) (A) (A) (A) (A) (A) (A) (A) (A) (A) (A)
                 (A) (A) (A) (A) (A) (A) (A) (A) (A) (A) (A) (A)
                 (A) (A) (A) (A) (A) (A) (A) (A) (A) (A) (A) (A)
                 (A) (A) (A) (A) (A) (A) (A) (A) (A) (A) (A) (A)
                 (A) (A) (A) (A) (A) (A) (A) (A) (A) (A) (A) (A)
                 (A) (A) (A) (A) (A) (A) (A) (A) (A) (A) (A) (A)
                 (A) (A) (A) (A) (A) (A) (A) (A) (A) (A) (A) (A)
                 (A) (A) (A) (A) (A) (A) (A) (A) (A) (A) (A) (A)
                 (A) (A) (A) (A) (A) (A) (A) (A) (A) (A) (A) (A)
                 (A) (A) (A) (A) (A) (A) (A) (A) (A) (A) (A) (A)
                 (A) (A) (A) (A) (A) (A) (A) (A) (A) (A) (A) (A)
                 (A) (A) (A) (A) (A) (A) (A) (A) (A) (A) (A) (A)
                 (A) (A) (A) (A) (A) (A) (A) (A) (A) (A) (A) (A)
                 (A) (A) (A) (A) (A) (A) (A) (A) (A) (A) (A) (A)
                 (A) (A) (A) (A) (A) (A) (A) (A) (A) (A) (A) (A)
                 (A) (A) (A) (A) (A) (A) (A) (A) (A) (A) (A) (A)
                 (A) (A) (A) (A) (A) (A) (A) (A) (A) (A) (A) (A)
                 (A) (A) (A) (A) (A) (A) (A) (A) (A) (A) (A) (A)
                 (A) (A) (A) (A) (A) (A) (A) (A) (A) (A) (A) (A)
                 (A) (A) (A) (A) (A) (A) (A) (A) (A) (A) (A) (A)
                 (A) (A) (A) (A) (A) (A) (A) (A) (A) (A) (A) (A)
                 (A) (A) (A) (A) (A) (A) (A) (A) (A) (A) (A) (A)
                 (A) (A) (A) (A) (A) (A) (A) (A) (A) (A) (A) (A)
                 (A) (A) (A) (A) (A) (A) (A) (A) (A) (A) (A) (A)
                 (A) (A) (A) (A) (A) (A) (A) (A) (A) (A) (A) (A)
                 (A) (A) (A) (A) (A) (A) (A) (A) (A) (A) (A) (A)
                 (A) (A) (A) (A) (A) (A) (A) (A) (A) (A) (A) (A)
                 (A) (A) (A) (A) (A) (A) (A) (A) (A) (A) (A) (A)
                 (A) (A) (A) (A) (A) (A) (A) (A) (A) (A) (A) (A)
                 (A) (A) (A) (A) (A) (A) (A) (A) (A) (A) (A) (A)
                 (A) (A) (A) (A) (A) (A) (A) (A) (A) (A) (A) (A)
                 (A) (A) (A) (A) (A) (A) (A) (A) (A) (A) (A) (A)
                 (A) (A) (A) (A) (A) (A) (A) (A) (A) (A) (A)
 The electronic state is 3-A.
 Alpha  occ. eigenvalues --  -77.26968 -19.28174 -19.18207 -19.12318 -14.43043
 Alpha  occ. eigenvalues --  -14.42064 -10.33696 -10.29454 -10.28716 -10.25812
 Alpha  occ. eigenvalues --  -10.25421 -10.25269 -10.25234 -10.24670 -10.24539
 Alpha  occ. eigenvalues --  -10.24305 -10.24288 -10.23951 -10.21115 -10.21114
 Alpha  occ. eigenvalues --  -10.21009 -10.20914 -10.20811 -10.20298 -10.20061
 Alpha  occ. eigenvalues --  -10.19943  -6.64410  -4.78063  -4.77956  -4.77831
 Alpha  occ. eigenvalues --   -3.10716  -1.94913  -1.93598  -1.92808  -1.15602
 Alpha  occ. eigenvalues --   -1.01003  -0.96663  -0.91433  -0.86568  -0.85516
 Alpha  occ. eigenvalues --   -0.83946  -0.83607  -0.82794  -0.77802  -0.77120
 Alpha  occ. eigenvalues --   -0.74430  -0.70810  -0.70458  -0.70235  -0.69669
 Alpha  occ. eigenvalues --   -0.69196  -0.66398  -0.66090  -0.63442  -0.62580
 Alpha  occ. eigenvalues --   -0.58963  -0.57480  -0.56396  -0.53677  -0.53305
 Alpha  occ. eigenvalues --   -0.52083  -0.51079  -0.50388  -0.49149  -0.48098
 Alpha  occ. eigenvalues --   -0.47654  -0.47392  -0.46622  -0.46533  -0.45866
 Alpha  occ. eigenvalues --   -0.45657  -0.45436  -0.44537  -0.44480  -0.44104
 Alpha  occ. eigenvalues --   -0.43497  -0.43227  -0.42048  -0.41792  -0.41111
 Alpha  occ. eigenvalues --   -0.40490  -0.39620  -0.39335  -0.38888  -0.38782
 Alpha  occ. eigenvalues --   -0.38636  -0.38310  -0.38222  -0.37563  -0.37424
 Alpha  occ. eigenvalues --   -0.36877  -0.36382  -0.36132  -0.35798  -0.35484
 Alpha  occ. eigenvalues --   -0.35085  -0.34460  -0.34375  -0.33917  -0.33681
 Alpha  occ. eigenvalues --   -0.33187  -0.32629  -0.32140  -0.31945  -0.31073
 Alpha  occ. eigenvalues --   -0.29684  -0.28770  -0.28207  -0.27224  -0.25995
 Alpha  occ. eigenvalues --   -0.22058  -0.19854  -0.19570
 Alpha virt. eigenvalues --   -0.04447  -0.02794  -0.02404  -0.00623   0.00460
 Alpha virt. eigenvalues --    0.01015   0.02150   0.03052   0.03277   0.05050
 Alpha virt. eigenvalues --    0.05930   0.07196   0.07501   0.07573   0.07873
 Alpha virt. eigenvalues --    0.08404   0.08861   0.09274   0.09785   0.09949
 Alpha virt. eigenvalues --    0.10462   0.10769   0.10983   0.11291   0.11642
 Alpha virt. eigenvalues --    0.11952   0.12264   0.12583   0.13048   0.13197
 Alpha virt. eigenvalues --    0.13357   0.14136   0.14330   0.14955   0.15243
 Alpha virt. eigenvalues --    0.15530   0.15695   0.15896   0.16100   0.16566
 Alpha virt. eigenvalues --    0.16773   0.17431   0.17535   0.17667   0.18214
 Alpha virt. eigenvalues --    0.18304   0.18507   0.18680   0.18936   0.19411
 Alpha virt. eigenvalues --    0.20055   0.20202   0.20539   0.20675   0.20939
 Alpha virt. eigenvalues --    0.21241   0.21846   0.22194   0.22463   0.23150
 Alpha virt. eigenvalues --    0.23549   0.23981   0.24545   0.24881   0.25205
 Alpha virt. eigenvalues --    0.25418   0.26195   0.26443   0.26772   0.27803
 Alpha virt. eigenvalues --    0.28194   0.28594   0.28879   0.29189   0.29561
 Alpha virt. eigenvalues --    0.30431   0.30842   0.30928   0.31197   0.31957
 Alpha virt. eigenvalues --    0.32353   0.32756   0.33282   0.33515   0.33575
 Alpha virt. eigenvalues --    0.34025   0.34304   0.34398   0.34963   0.35180
 Alpha virt. eigenvalues --    0.35940   0.37215   0.37523   0.37807   0.38086
 Alpha virt. eigenvalues --    0.38213   0.39028   0.39400   0.39681   0.40055
 Alpha virt. eigenvalues --    0.40656   0.40985   0.41459   0.41573   0.42025
 Alpha virt. eigenvalues --    0.42174   0.42613   0.43350   0.43619   0.43767
 Alpha virt. eigenvalues --    0.44098   0.44273   0.44559   0.44728   0.45176
 Alpha virt. eigenvalues --    0.45385   0.45624   0.46276   0.46448   0.46865
 Alpha virt. eigenvalues --    0.46951   0.47185   0.47386   0.47584   0.47790
 Alpha virt. eigenvalues --    0.47835   0.48149   0.48959   0.49015   0.49715
 Alpha virt. eigenvalues --    0.49762   0.49946   0.50453   0.50758   0.50834
 Alpha virt. eigenvalues --    0.51081   0.51388   0.51600   0.51810   0.52140
 Alpha virt. eigenvalues --    0.52331   0.52533   0.52834   0.53409   0.53949
 Alpha virt. eigenvalues --    0.54192   0.54461   0.54523   0.54695   0.55279
 Alpha virt. eigenvalues --    0.55452   0.55611   0.55685   0.56338   0.56642
 Alpha virt. eigenvalues --    0.56852   0.57260   0.57297   0.57905   0.58492
 Alpha virt. eigenvalues --    0.58567   0.58828   0.59700   0.59837   0.60036
 Alpha virt. eigenvalues --    0.60689   0.61176   0.61261   0.62090   0.62413
 Alpha virt. eigenvalues --    0.62952   0.63434   0.63560   0.63827   0.64494
 Alpha virt. eigenvalues --    0.64954   0.65313   0.65687   0.66100   0.66727
 Alpha virt. eigenvalues --    0.67338   0.67555   0.68528   0.68658   0.69418
 Alpha virt. eigenvalues --    0.69835   0.70635   0.71326   0.72088   0.72802
 Alpha virt. eigenvalues --    0.73291   0.73928   0.74031   0.74710   0.75045
 Alpha virt. eigenvalues --    0.76046   0.76122   0.76388   0.76942   0.77130
 Alpha virt. eigenvalues --    0.78129   0.78672   0.78840   0.79778   0.79951
 Alpha virt. eigenvalues --    0.80086   0.81301   0.81466   0.81785   0.82251
 Alpha virt. eigenvalues --    0.82675   0.83040   0.83396   0.84269   0.84702
 Alpha virt. eigenvalues --    0.85379   0.85675   0.86116   0.86796   0.86901
 Alpha virt. eigenvalues --    0.87892   0.88046   0.88460   0.88998   0.89175
 Alpha virt. eigenvalues --    0.89423   0.89670   0.90346   0.91105   0.91529
 Alpha virt. eigenvalues --    0.92087   0.92861   0.93159   0.93520   0.93712
 Alpha virt. eigenvalues --    0.94324   0.94733   0.95295   0.95329   0.95625
 Alpha virt. eigenvalues --    0.96196   0.96448   0.96872   0.97024   0.97409
 Alpha virt. eigenvalues --    0.98257   0.98504   0.98923   0.99076   0.99720
 Alpha virt. eigenvalues --    1.00350   1.00601   1.00780   1.01026   1.01999
 Alpha virt. eigenvalues --    1.02326   1.02452   1.02684   1.03479   1.03661
 Alpha virt. eigenvalues --    1.04056   1.04415   1.04867   1.05329   1.05544
 Alpha virt. eigenvalues --    1.06767   1.06830   1.07418   1.07559   1.08304
 Alpha virt. eigenvalues --    1.08710   1.08936   1.09293   1.09588   1.09717
 Alpha virt. eigenvalues --    1.10395   1.10558   1.10989   1.11548   1.11916
 Alpha virt. eigenvalues --    1.12125   1.13316   1.13601   1.14031   1.14463
 Alpha virt. eigenvalues --    1.14509   1.15069   1.15662   1.15830   1.15991
 Alpha virt. eigenvalues --    1.16361   1.16695   1.17069   1.17723   1.17838
 Alpha virt. eigenvalues --    1.18679   1.19057   1.19352   1.20146   1.20169
 Alpha virt. eigenvalues --    1.20906   1.21401   1.21698   1.22089   1.22152
 Alpha virt. eigenvalues --    1.22192   1.23234   1.23458   1.23763   1.24237
 Alpha virt. eigenvalues --    1.24816   1.25419   1.25634   1.26327   1.26478
 Alpha virt. eigenvalues --    1.26610   1.26931   1.27509   1.27586   1.28321
 Alpha virt. eigenvalues --    1.28708   1.28897   1.28983   1.29834   1.30010
 Alpha virt. eigenvalues --    1.30457   1.30631   1.31202   1.31674   1.31948
 Alpha virt. eigenvalues --    1.32058   1.32446   1.33025   1.33229   1.33309
 Alpha virt. eigenvalues --    1.33927   1.34019   1.34099   1.34606   1.34917
 Alpha virt. eigenvalues --    1.35459   1.35630   1.36288   1.36634   1.36947
 Alpha virt. eigenvalues --    1.37229   1.37593   1.37943   1.38459   1.38754
 Alpha virt. eigenvalues --    1.38921   1.39349   1.39716   1.40075   1.40438
 Alpha virt. eigenvalues --    1.40712   1.41214   1.41512   1.41968   1.42181
 Alpha virt. eigenvalues --    1.43126   1.43621   1.43937   1.44305   1.44627
 Alpha virt. eigenvalues --    1.45154   1.45363   1.46045   1.46670   1.46927
 Alpha virt. eigenvalues --    1.47878   1.48214   1.48619   1.49365   1.50008
 Alpha virt. eigenvalues --    1.50179   1.50581   1.51015   1.51760   1.52325
 Alpha virt. eigenvalues --    1.52387   1.52878   1.53681   1.53855   1.54904
 Alpha virt. eigenvalues --    1.55298   1.55644   1.56101   1.56559   1.57223
 Alpha virt. eigenvalues --    1.57739   1.57850   1.58113   1.58875   1.59668
 Alpha virt. eigenvalues --    1.59766   1.60030   1.60527   1.60978   1.61275
 Alpha virt. eigenvalues --    1.61693   1.61890   1.62404   1.63165   1.63425
 Alpha virt. eigenvalues --    1.63924   1.64518   1.64870   1.65749   1.65909
 Alpha virt. eigenvalues --    1.66425   1.66802   1.67865   1.68403   1.68683
 Alpha virt. eigenvalues --    1.69488   1.69991   1.71444   1.71598   1.72320
 Alpha virt. eigenvalues --    1.72699   1.72979   1.73547   1.74567   1.75864
 Alpha virt. eigenvalues --    1.76734   1.77262   1.77554   1.77953   1.79611
 Alpha virt. eigenvalues --    1.79823   1.80019   1.81038   1.81579   1.83024
 Alpha virt. eigenvalues --    1.83755   1.85823   1.86270   1.86944   1.87799
 Alpha virt. eigenvalues --    1.88037   1.89789   1.90359   1.91784   1.91865
 Alpha virt. eigenvalues --    1.92694   1.93862   1.94794   1.95664   1.96669
 Alpha virt. eigenvalues --    1.97676   1.98720   2.00075   2.01308   2.01601
 Alpha virt. eigenvalues --    2.02418   2.02935   2.05587   2.05882   2.06942
 Alpha virt. eigenvalues --    2.08919   2.10724   2.11672   2.12089   2.12816
 Alpha virt. eigenvalues --    2.14236   2.16232   2.18330   2.18842   2.20777
 Alpha virt. eigenvalues --    2.22806   2.24988   2.25351   2.26069   2.27714
 Alpha virt. eigenvalues --    2.30597   2.31584   2.32013   2.33580   2.34291
 Alpha virt. eigenvalues --    2.34537   2.35198   2.35891   2.36542   2.37298
 Alpha virt. eigenvalues --    2.37907   2.38733   2.39481   2.39727   2.40183
 Alpha virt. eigenvalues --    2.41934   2.42324   2.43135   2.43370   2.44480
 Alpha virt. eigenvalues --    2.45070   2.45679   2.46179   2.46519   2.46924
 Alpha virt. eigenvalues --    2.48101   2.48836   2.49201   2.49871   2.51241
 Alpha virt. eigenvalues --    2.51702   2.52119   2.52830   2.53236   2.54217
 Alpha virt. eigenvalues --    2.54721   2.55161   2.55524   2.56724   2.57344
 Alpha virt. eigenvalues --    2.57939   2.58768   2.58983   2.59708   2.59923
 Alpha virt. eigenvalues --    2.60422   2.61378   2.61956   2.62473   2.63039
[...]
    59   Atom       -0.000468      0.001671     -0.000513
    60   Atom        0.000777     -0.000322     -0.001404
    61   Atom       -0.000634      0.000217     -0.000781
    62   Atom       -0.113663      0.031821     -0.029817
 --------------------------------------------------------


 ---------------------------------------------------------------------------------
              Anisotropic Spin Dipole Couplings in Principal Axis System
 ---------------------------------------------------------------------------------

       Atom             a.u.   MegaHertz   Gauss  10(-4) cm-1        Axes

              Baa    -0.0037    -1.989    -0.710    -0.663  0.4081  0.1108  0.9062
     1 H(1)   Bbb    -0.0033    -1.744    -0.622    -0.582 -0.4758  0.8730  0.1075
              Bcc     0.0070     3.733     1.332     1.245  0.7792  0.4751 -0.4089
 
              Baa    -0.0100    -1.340    -0.478    -0.447  0.2855 -0.0930  0.9539
     2 C(13)  Bbb    -0.0049    -0.664    -0.237    -0.222 -0.0676  0.9908  0.1169
              Bcc     0.0149     2.004     0.715     0.668  0.9560  0.0978 -0.2766
 
              Baa    -0.0037    -1.979    -0.706    -0.660  0.1660 -0.4912  0.8551
     3 H(1)   Bbb    -0.0032    -1.732    -0.618    -0.578 -0.3589  0.7775  0.5163
              Bcc     0.0070     3.711     1.324     1.238  0.9185  0.3926  0.0472
 
              Baa    -0.0157    -8.399    -2.997    -2.802  0.2223 -0.0533  0.9735
     4 H(1)   Bbb    -0.0102    -5.451    -1.945    -1.818 -0.3726  0.9180  0.1354
              Bcc     0.0260    13.850     4.942     4.620  0.9009  0.3929 -0.1842
 
              Baa    -0.0118    -6.289    -2.244    -2.098  0.2377  0.8835 -0.4037
     5 H(1)   Bbb    -0.0075    -3.975    -1.418    -1.326 -0.5063  0.4674  0.7247
              Bcc     0.0192    10.264     3.662     3.424  0.8290  0.0321  0.5584
 
              Baa    -1.5410   111.508    39.789    37.195 -0.2114  0.9609  0.1786
     6 O(17)  Bbb    -0.3338    24.152     8.618     8.056 -0.0026 -0.1832  0.9831
              Bcc     1.8748  -135.659   -48.407   -45.251  0.9774  0.2074  0.0412
 
              Baa    -0.0028    -1.513    -0.540    -0.505 -0.0809 -0.4386  0.8950
     7 H(1)   Bbb    -0.0026    -1.393    -0.497    -0.465  0.0179  0.8972  0.4413
              Bcc     0.0054     2.906     1.037     0.969  0.9966 -0.0517  0.0647
 
              Baa    -0.7245    52.421    18.705    17.486 -0.1551  0.5395  0.8276
     8 O(17)  Bbb    -0.5230    37.847    13.505    12.625  0.8975  0.4271 -0.1102
              Bcc     1.2475   -90.268   -32.210   -30.110 -0.4129  0.7257 -0.5504
 
              Baa    -0.0088    -1.178    -0.420    -0.393  0.3382 -0.2185  0.9154
     9 C(13)  Bbb    -0.0064    -0.855    -0.305    -0.285 -0.0832  0.9619  0.2603
              Bcc     0.0152     2.033     0.726     0.678  0.9374  0.1642 -0.3071
 
              Baa    -0.0033    -1.740    -0.621    -0.580  0.1014  0.8865 -0.4515
    10 H(1)   Bbb    -0.0026    -1.381    -0.493    -0.461  0.6859 -0.3910 -0.6137
              Bcc     0.0059     3.121     1.114     1.041  0.7206  0.2474  0.6477
 
              Baa    -0.0035    -1.870    -0.667    -0.624  0.3196 -0.2824  0.9045
    11 H(1)   Bbb    -0.0031    -1.666    -0.594    -0.556  0.0814  0.9592  0.2707
              Bcc     0.0066     3.536     1.262     1.180  0.9440  0.0129 -0.3296
 
              Baa    -0.0090    -1.203    -0.429    -0.401 -0.2701  0.9613  0.0535
    12 C(13)  Bbb    -0.0058    -0.782    -0.279    -0.261 -0.2054 -0.1118  0.9723
              Bcc     0.0148     1.986     0.709     0.662  0.9407  0.2516  0.2277
 
              Baa    -0.0086    -4.576    -1.633    -1.526  0.0163  0.1146  0.9933
    13 H(1)   Bbb    -0.0070    -3.735    -1.333    -1.246  0.2203  0.9686 -0.1154
              Bcc     0.0156     8.311     2.966     2.772  0.9753 -0.2207  0.0095
 
              Baa    -0.0046    -2.430    -0.867    -0.810 -0.3935 -0.5184  0.7592
    14 H(1)   Bbb    -0.0030    -1.595    -0.569    -0.532 -0.2331  0.8551  0.4631
              Bcc     0.0075     4.024     1.436     1.342  0.8893 -0.0053  0.4574
 
              Baa    -0.0088    -4.674    -1.668    -1.559 -0.4439  0.7783 -0.4440
    15 H(1)   Bbb    -0.0064    -3.425    -1.222    -1.142  0.3552  0.6078  0.7102
              Bcc     0.0152     8.099     2.890     2.702  0.8226  0.1576 -0.5463
 
              Baa    -0.0049    -0.664    -0.237    -0.221  0.1011  0.9945 -0.0270
    16 C(13)  Bbb    -0.0049    -0.656    -0.234    -0.219  0.1413  0.0125  0.9899
              Bcc     0.0098     1.320     0.471     0.440  0.9848 -0.1039 -0.1392
 
              Baa    -0.0026    -1.412    -0.504    -0.471  0.1582 -0.2753  0.9483
    17 H(1)   Bbb    -0.0024    -1.254    -0.448    -0.418  0.3182  0.9233  0.2150
              Bcc     0.0050     2.666     0.951     0.889  0.9347 -0.2678 -0.2336
 
              Baa    -0.0116    -6.201    -2.213    -2.068  0.4143  0.8292 -0.3751
    18 H(1)   Bbb    -0.0061    -3.253    -1.161    -1.085  0.4566  0.1671  0.8738
              Bcc     0.0177     9.453     3.373     3.153  0.7873 -0.5333 -0.3094
 
              Baa    -0.1033     2.532     0.904     0.845  0.9201  0.3400  0.1945
    19 Ru(99) Bbb    -0.0872     2.137     0.762     0.713 -0.1768 -0.0824  0.9808
              Bcc     0.1906    -4.669    -1.666    -1.557 -0.3495  0.9368  0.0157
 
              Baa    -0.0093    -4.937    -1.762    -1.647  0.8287 -0.5450  0.1274
    20 H(1)   Bbb    -0.0078    -4.139    -1.477    -1.381 -0.3056 -0.2499  0.9188
              Bcc     0.0170     9.077     3.239     3.028  0.4689  0.8004  0.3736
 
              Baa    -0.0406    -1.567    -0.559    -0.523 -0.0348  0.7516 -0.6588
    21 N(14)  Bbb    -0.0389    -1.499    -0.535    -0.500  0.2191  0.6489  0.7287
              Bcc     0.0795     3.067     1.094     1.023  0.9751 -0.1190 -0.1873
 
              Baa    -0.0130    -1.744    -0.622    -0.582  0.5425  0.8399 -0.0164
    22 C(13)  Bbb     0.0008     0.107     0.038     0.036 -0.0809  0.0717  0.9941
              Bcc     0.0122     1.637     0.584     0.546  0.8361 -0.5380  0.1068
 
              Baa    -0.0060    -0.806    -0.287    -0.269 -0.0822 -0.0140  0.9965
    23 C(13)  Bbb    -0.0029    -0.382    -0.136    -0.128 -0.4959  0.8679 -0.0287
              Bcc     0.0089     1.188     0.424     0.396  0.8645  0.4966  0.0782
 
              Baa    -0.0025    -1.345    -0.480    -0.449 -0.2480  0.6881 -0.6819
    24 H(1)   Bbb    -0.0025    -1.318    -0.470    -0.440  0.7851 -0.2696 -0.5577
              Bcc     0.0050     2.663     0.950     0.888  0.5676  0.6736  0.4734
 
              Baa    -0.0018    -0.935    -0.334    -0.312  0.3563 -0.5663  0.7432
    25 H(1)   Bbb    -0.0016    -0.845    -0.302    -0.282 -0.1077  0.7653  0.6346
              Bcc     0.0033     1.780     0.635     0.594  0.9282  0.3061 -0.2117
 
              Baa    -0.0044    -0.594    -0.212    -0.198 -0.3376 -0.1685  0.9261
    26 C(13)  Bbb    -0.0040    -0.534    -0.190    -0.178  0.7042 -0.6981  0.1296
              Bcc     0.0084     1.127     0.402     0.376  0.6247  0.6959  0.3543
 
              Baa    -0.0097    -1.298    -0.463    -0.433  0.4171 -0.2396  0.8767
    27 C(13)  Bbb    -0.0063    -0.844    -0.301    -0.281  0.2996  0.9470  0.1162
              Bcc     0.0160     2.142     0.764     0.714  0.8581 -0.2142 -0.4667
 
              Baa    -0.0308    -6.659    -2.376    -2.221  0.8246 -0.5085 -0.2478
    28 P(31)  Bbb    -0.0049    -1.051    -0.375    -0.351  0.3076  0.0356  0.9508
              Bcc     0.0357     7.710     2.751     2.572  0.4747  0.8603 -0.1858
 
              Baa    -0.0038    -2.035    -0.726    -0.679  0.5160  0.8494 -0.1111
    29 H(1)   Bbb    -0.0034    -1.810    -0.646    -0.604  0.1719  0.0244  0.9848
              Bcc     0.0072     3.845     1.372     1.283  0.8392 -0.5272 -0.1334
 
              Baa    -0.0030    -0.400    -0.143    -0.133  0.1840  0.5631  0.8056
    30 C(13)  Bbb    -0.0027    -0.367    -0.131    -0.122 -0.5001  0.7592 -0.4165
              Bcc     0.0057     0.767     0.274     0.256  0.8462  0.3263 -0.4213
 
              Baa    -0.0058    -3.070    -1.096    -1.024 -0.3975 -0.3886  0.8313
    31 H(1)   Bbb    -0.0049    -2.610    -0.931    -0.871 -0.2894  0.9128  0.2883
              Bcc     0.0106     5.680     2.027     1.895  0.8708  0.1260  0.4753
 
              Baa    -0.0019    -1.024    -0.365    -0.341 -0.1001  0.7199  0.6868
    32 H(1)   Bbb    -0.0018    -0.969    -0.346    -0.323 -0.0472 -0.6929  0.7195
              Bcc     0.0037     1.993     0.711     0.665  0.9939  0.0396  0.1033
 
              Baa    -0.0016    -0.832    -0.297    -0.277  0.4569  0.0717  0.8866
    33 H(1)   Bbb    -0.0014    -0.747    -0.266    -0.249 -0.1077  0.9939 -0.0248
              Bcc     0.0030     1.579     0.563     0.527  0.8830  0.0842 -0.4618
 
              Baa    -0.0061    -0.814    -0.291    -0.272 -0.3547 -0.6491  0.6730
    34 C(13)  Bbb    -0.0055    -0.739    -0.264    -0.247 -0.1872  0.7545  0.6291
              Bcc     0.0116     1.554     0.554     0.518  0.9160 -0.0971  0.3891
 
              Baa    -0.0014    -0.770    -0.275    -0.257 -0.3882  0.1110  0.9149
    35 H(1)   Bbb    -0.0014    -0.740    -0.264    -0.247 -0.3994  0.8744 -0.2755
              Bcc     0.0028     1.510     0.539     0.504  0.8305  0.4724  0.2951
 
              Baa    -0.0786   -10.545    -3.763    -3.517  0.9138  0.3755 -0.1550
    36 C(13)  Bbb    -0.0242    -3.241    -1.157    -1.081 -0.1179  0.6102  0.7835
              Bcc     0.1027    13.786     4.919     4.599 -0.3888  0.6976 -0.6018
 
              Baa    -0.0020    -0.268    -0.096    -0.089  0.2472 -0.6455  0.7226
    37 C(13)  Bbb    -0.0018    -0.236    -0.084    -0.079 -0.4467  0.5859  0.6762
              Bcc     0.0038     0.503     0.180     0.168  0.8599  0.4899  0.1435
 
              Baa    -0.0112    -5.957    -2.126    -1.987  0.7578  0.4888  0.4322
    38 H(1)   Bbb    -0.0075    -4.017    -1.433    -1.340 -0.2793  0.8417 -0.4622
              Bcc     0.0187     9.974     3.559     3.327 -0.5896  0.2296  0.7743
 
              Baa    -0.0054    -0.729    -0.260    -0.243  0.5547  0.7367  0.3868
    39 C(13)  Bbb    -0.0041    -0.548    -0.196    -0.183 -0.4641  0.6598 -0.5911
              Bcc     0.0095     1.277     0.456     0.426 -0.6906  0.1484  0.7078
 
              Baa    -0.0018    -0.939    -0.335    -0.313 -0.1600  0.7943 -0.5860
    40 H(1)   Bbb    -0.0017    -0.896    -0.320    -0.299 -0.2719  0.5352  0.7997
              Bcc     0.0034     1.835     0.655     0.612  0.9489  0.2873  0.1304
 
              Baa    -0.0027    -1.461    -0.521    -0.487  0.6432  0.5689  0.5125
    41 H(1)   Bbb    -0.0026    -1.386    -0.495    -0.462 -0.3061  0.8046 -0.5089
              Bcc     0.0053     2.847     1.016     0.950  0.7018 -0.1704 -0.6917
 
              Baa    -0.0093    -1.241    -0.443    -0.414  0.7672  0.6155  0.1802
    42 C(13)  Bbb    -0.0055    -0.743    -0.265    -0.248 -0.1856 -0.0558  0.9810
              Bcc     0.0148     1.985     0.708     0.662 -0.6139  0.7861 -0.0715
 
              Baa    -0.0286    -1.102    -0.393    -0.368  0.8789  0.2845  0.3829
    43 N(14)  Bbb    -0.0228    -0.878    -0.313    -0.293 -0.4318  0.1332  0.8921
              Bcc     0.0513     1.980     0.707     0.661 -0.2028  0.9494 -0.2399
 
              Baa    -0.0032    -0.435    -0.155    -0.145  0.1781  0.9425 -0.2827
    44 C(13)  Bbb    -0.0031    -0.418    -0.149    -0.139 -0.1061  0.3040  0.9467
              Bcc     0.0064     0.853     0.305     0.285  0.9783 -0.1386  0.1542
 
              Baa    -0.0031    -1.676    -0.598    -0.559  0.7743 -0.5577  0.2991
    45 H(1)   Bbb    -0.0029    -1.544    -0.551    -0.515 -0.3360  0.0382  0.9411
              Bcc     0.0060     3.220     1.149     1.074  0.5363  0.8292  0.1579
 
              Baa    -0.0054    -2.859    -1.020    -0.954  0.4219  0.8999 -0.1108
    46 H(1)   Bbb    -0.0049    -2.606    -0.930    -0.869 -0.4511  0.3144  0.8353
              Bcc     0.0102     5.464     1.950     1.823  0.7865 -0.3024  0.5385
 
              Baa    -0.0020    -1.058    -0.378    -0.353  0.3319  0.4827  0.8105
    47 H(1)   Bbb    -0.0017    -0.923    -0.329    -0.308 -0.5465  0.7987 -0.2519
              Bcc     0.0037     1.981     0.707     0.661  0.7689  0.3593 -0.5289
 
              Baa    -0.0019    -1.014    -0.362    -0.338 -0.2948 -0.5281  0.7964
    48 H(1)   Bbb    -0.0017    -0.898    -0.320    -0.300  0.1581  0.7950  0.5856
              Bcc     0.0036     1.912     0.682     0.638  0.9424 -0.2985  0.1509
 
              Baa    -0.0057    -0.766    -0.273    -0.256 -0.1053  0.5638  0.8191
    49 C(13)  Bbb    -0.0051    -0.687    -0.245    -0.229  0.8046 -0.4357  0.4033
              Bcc     0.0108     1.453     0.519     0.485  0.5843  0.7016 -0.4078
 
              Baa    -0.0016    -0.865    -0.309    -0.288  0.2257  0.9269 -0.3000
    50 H(1)   Bbb    -0.0014    -0.756    -0.270    -0.252 -0.3389  0.3634  0.8678
              Bcc     0.0030     1.621     0.578     0.541  0.9134 -0.0942  0.3961
 
              Baa    -0.0017    -0.891    -0.318    -0.297  0.2727 -0.4639  0.8429
    51 H(1)   Bbb    -0.0016    -0.828    -0.296    -0.276 -0.4765  0.6959  0.5372
              Bcc     0.0032     1.719     0.613     0.573  0.8358  0.5482  0.0313
 
              Baa    -0.0113    -1.514    -0.540    -0.505  0.9170  0.0851  0.3897
    52 C(13)  Bbb    -0.0032    -0.424    -0.151    -0.141 -0.3572  0.6102  0.7072
              Bcc     0.0144     1.937     0.691     0.646  0.1776  0.7877 -0.5899
 
              Baa    -0.0042    -0.558    -0.199    -0.186  0.2686  0.1847  0.9454
    53 C(13)  Bbb    -0.0029    -0.395    -0.141    -0.132  0.8945  0.3163 -0.3160
              Bcc     0.0071     0.954     0.340     0.318 -0.3574  0.9305 -0.0802
 
              Baa    -0.0043    -2.309    -0.824    -0.770  0.7597  0.3373  0.5560
    54 H(1)   Bbb    -0.0043    -2.293    -0.818    -0.765 -0.3267  0.9372 -0.1222
              Bcc     0.0086     4.602     1.642     1.535 -0.5623 -0.0888  0.8221
 
              Baa    -0.0017    -0.931    -0.332    -0.311  0.5624  0.4207  0.7118
    55 H(1)   Bbb    -0.0017    -0.893    -0.319    -0.298 -0.6228 -0.3506  0.6994
              Bcc     0.0034     1.825     0.651     0.609 -0.5438  0.8367 -0.0648
 
              Baa    -0.0047    -2.523    -0.900    -0.841  0.7136  0.1409  0.6862
    56 H(1)   Bbb    -0.0040    -2.142    -0.764    -0.715 -0.4850  0.8062  0.3389
              Bcc     0.0087     4.665     1.665     1.556 -0.5055 -0.5746  0.6436
 
              Baa    -0.0029    -1.563    -0.558    -0.521  0.6022 -0.1727  0.7794
    57 H(1)   Bbb    -0.0026    -1.397    -0.498    -0.466 -0.5089  0.6691  0.5415
              Bcc     0.0055     2.960     1.056     0.987  0.6151  0.7228 -0.3151
 
              Baa    -0.0041    -0.547    -0.195    -0.182  0.3514  0.2387  0.9053
    58 C(13)  Bbb    -0.0017    -0.222    -0.079    -0.074  0.9315 -0.1866 -0.3123
              Bcc     0.0057     0.769     0.274     0.257  0.0944  0.9530 -0.2879
 
              Baa    -0.0031    -0.418    -0.149    -0.139  0.8169  0.0149 -0.5766
    59 C(13)  Bbb     0.0002     0.031     0.011     0.010  0.5519  0.2704  0.7889
              Bcc     0.0029     0.387     0.138     0.129 -0.1677  0.9626 -0.2127
 
              Baa    -0.0015    -0.813    -0.290    -0.271  0.6942  0.1194  0.7098
    60 H(1)   Bbb    -0.0015    -0.780    -0.278    -0.260  0.6939 -0.3731 -0.6159
              Bcc     0.0030     1.593     0.568     0.531  0.1913  0.9201 -0.3418
 
              Baa    -0.0012    -0.649    -0.232    -0.217  0.9039  0.0770 -0.4208
    61 H(1)   Bbb    -0.0011    -0.572    -0.204    -0.191  0.3805  0.3049  0.8731
              Bcc     0.0023     1.221     0.436     0.407 -0.1956  0.9493 -0.2463
 
              Baa    -0.1362     9.854     3.516     3.287  0.9081  0.3735 -0.1892
    62 O(17)  Bbb    -0.0462     3.342     1.193     1.115  0.1038  0.2370  0.9660
              Bcc     0.1824   -13.196    -4.709    -4.402 -0.4056  0.8969 -0.1765
 

 ---------------------------------------------------------------------------------

 1\1\GINC-NODE278\SP\UPBE1PBE\GenECP\C20H35N2O3P1Ru1(3)\JS1212\28-Aug-2
 020\0\\# genecp pbe1pbe EmpiricalDispersion=GD3BJ scrf=(SMD,solvent=wa
 ter) geom=allcheck\\Title Card Required\\0,3\H,0,-3.4891278328,-3.2688
 567186,1.9434878654\C,0,-3.2263167176,-2.6923017582,1.0443048643\H,0,-
 3.9619060075,-2.946764942,0.265248692\H,0,-2.2248934893,-3.0134139476,
 0.7164393851\H,0,1.3576407426,-0.6314234554,2.7276553197\O,0,-0.048902
 4962,-2.4744597632,0.3210415099\H,0,4.1916750761,-1.8309132987,0.76309
 73562\O,0,-0.4881420604,-0.1049527513,1.8798857738\C,0,-3.213143701,-1
 .2201528709,1.3953092074\H,0,2.7810177966,0.0595199698,3.5803206785\H,
 0,-4.2134722829,-0.8812212509,1.7297580479\C,0,2.42652405,-0.379614114
 5,2.6323550707\H,0,2.6668051593,-2.7276255592,0.4825995231\H,0,3.01050
 1479,-1.2905188,2.4481255297\H,0,-2.4916904302,-1.0375260435,2.2087362
 602\C,0,3.5199807058,-2.2330727467,-0.0071377926\H,0,4.0794591233,-2.9
 985375974,-0.5694679307\H,0,-2.2850360673,1.0128781415,1.7508968386\Ru
 ,0,-0.3617561873,-0.6659544509,0.1054480926\H,0,0.7101636167,1.6100003
 207,2.0175247323\N,0,-2.7356975084,-0.3569008105,0.2967864643\C,0,-2.7
 545182493,1.0411177112,0.7493212325\C,0,2.5946725427,0.6669001374,1.52
 55687758\H,0,2.1368932441,2.2673610099,2.8800661979\H,0,4.8355016638,0
 .1134570551,-0.8612497499\C,0,1.7675577638,1.9008576639,1.9076539009\C
 ,0,3.0371272665,-1.1603957163,-0.9865439534\P,0,1.8334009431,-0.025720
 5657,-0.0647888079\H,0,-3.7765331975,1.4504957081,0.8195942564\C,0,4.2
 13837627,-0.4007426403,-1.602850517\H,0,-3.2258653962,-1.5344815937,-1
 .3506094767\H,0,-5.4556956576,-1.0920485328,-0.2519095148\H,0,4.857808
 3628,-1.1226377863,-2.1320111216\C,0,-3.4666200928,-0.5325119867,-0.96
 93530142\H,0,4.3730482156,1.568843262,2.3108777885\C,0,-0.589322255,-0
 .9317810229,-1.8108997482\C,0,4.0588300345,1.075522793,1.3761338494\H,
 0,1.4543811092,-2.4778402351,-1.7002760804\C,0,2.2725092313,-1.8670438
 6,-2.1073314079\H,0,4.7281455247,0.2179957537,1.2217957523\H,0,2.97625
 91459,-2.5287561335,-2.6388696758\C,0,-1.8666596938,1.9379512935,-0.06
 07699954\N,0,-0.666746745,1.4173507831,-0.3642453453\C,0,-4.9765640079
 ,-0.3512636875,-0.9085201004\H,0,1.8789667583,2.7257655667,1.18632529\
 H,0,-3.0361265064,0.1814669084,-1.6886266721\H,0,3.8806112713,0.337880
 6693,-2.3480391121\H,0,-5.2691662245,0.6509256556,-0.560450473\C,0,1.6
 155116287,1.4567266957,-1.188170172\H,0,-5.3964661921,-0.4817299655,-1
 .9172408774\H,0,4.2183244423,1.7978546956,0.5597415941\C,0,0.304728585
 9,2.1520262951,-0.9286103675\C,0,-2.1613731902,3.2602934432,-0.3786587
 55\H,0,1.8628596455,-1.1653638981,-2.8488826005\H,0,-3.1432201956,3.67
 22592607,-0.1427350736\H,0,1.6083056305,1.0485349249,-2.2134797139\H,0
 ,2.45339723,2.1674962654,-1.1279817894\C,0,0.0759971004,3.4908464714,-
 1.2426379633\C,0,-1.1749680562,4.0410247394,-0.9765261096\H,0,0.869573
 53,4.0889255935,-1.6918453296\H,0,-1.3782959851,5.0834319717,-1.228803
 6345\O,0,-0.8186698209,-0.955272256,-2.9431169737\\Version=ES64L-G16Re
 vA.03\State=3-A\HF=-1553.6845675\S2=2.023033\S2-1=0.\S2A=2.000306\RMSD
 =3.177e-09\Dipole=0.4456889,4.6305259,-3.0483449\Quadrupole=23.1847147
 ,-4.3154719,-18.8692428,-3.154561,-2.4915275,-1.7233121\PG=C01 [X(C20H
 35N2O3P1Ru1)]\\@


 POCKETA-POCKETA
 BARON VON RICHTOFEN
 SLAUGHTERED THE ALLIES WITH
 HARDLY A CARE.
 KILLED EIGHTY-ONE WITH HIS
 BLOOD-COLORED TRIPLANE, THEN
 UN-AEROBATICALLY
 PLUNGED FROM THE AIR.
   -- TONY HOFFMAN
 Job cpu time:       1 days  8 hours 45 minutes 23.4 seconds.
 Elapsed time:       0 days  1 hours 38 minutes 28.0 seconds.
 File lengths (MBytes):  RWF=   1833 Int=      0 D2E=      0 Chk=    143 Scr=      1
 Normal termination of Gaussian 16 at Fri Aug 28 20:11:01 2020.
