 Entering Gaussian System, Link 0=g16
 Initial command:
 /cluster/chemistry/gaussian/g16/l1.exe "/scratch/js1212.757588/scratch/Gau-9482.inp" -scrdir="/scratch/js1212.757588/scratch/"
 Entering Link 1 = /cluster/chemistry/gaussian/g16/l1.exe PID=      9484.
  
 Copyright (c) 1988,1990,1992,1993,1995,1998,2003,2009,2016,
            Gaussian, Inc.  All Rights Reserved.
  
 This is part of the Gaussian(R) 16 program.  It is based on
 the Gaussian(R) 09 system (copyright 2009, Gaussian, Inc.),
 the Gaussian(R) 03 system (copyright 2003, Gaussian, Inc.),
 the Gaussian(R) 98 system (copyright 1998, Gaussian, Inc.),
 the Gaussian(R) 94 system (copyright 1995, Gaussian, Inc.),
 the Gaussian 92(TM) system (copyright 1992, Gaussian, Inc.),
 the Gaussian 90(TM) system (copyright 1990, Gaussian, Inc.),
 the Gaussian 88(TM) system (copyright 1988, Gaussian, Inc.),
 the Gaussian 86(TM) system (copyright 1986, Carnegie Mellon
 University), and the Gaussian 82(TM) system (copyright 1983,
 Carnegie Mellon University). Gaussian is a federally registered
 trademark of Gaussian, Inc.
  
 This software contains proprietary and confidential information,
 including trade secrets, belonging to Gaussian, Inc.
  
 This software is provided under written license and may be
 used, copied, transmitted, or stored only in accord with that
 written license.
  
 The following legend is applicable only to US Government
 contracts under FAR:
  
                    RESTRICTED RIGHTS LEGEND
  
 Use, reproduction and disclosure by the US Government is
 subject to restrictions as set forth in subparagraphs (a)
 and (c) of the Commercial Computer Software - Restricted
 Rights clause in FAR 52.227-19.
  
 Gaussian, Inc.
 340 Quinnipiac St., Bldg. 40, Wallingford CT 06492
  
  
 ---------------------------------------------------------------
 Warning -- This program may not be used in any manner that
 competes with the business of Gaussian, Inc. or will provide
 assistance to any competitor of Gaussian, Inc.  The licensee
 of this program is prohibited from giving any competitor of
 Gaussian, Inc. access to this program.  By using this program,
 the user acknowledges that Gaussian, Inc. is engaged in the
 business of creating and licensing software in the field of
 computational chemistry and represents and warrants to the
 licensee that it is not a competitor of Gaussian, Inc. and that
 it will not use this program in any manner prohibited above.
 ---------------------------------------------------------------
  

 Cite this work as:
 Gaussian 16, Revision A.03,
 M. J. Frisch, G. W. Trucks, H. B. Schlegel, G. E. Scuseria, 
 M. A. Robb, J. R. Cheeseman, G. Scalmani, V. Barone, 
 G. A. Petersson, H. Nakatsuji, X. Li, M. Caricato, A. V. Marenich, 
 J. Bloino, B. G. Janesko, R. Gomperts, B. Mennucci, H. P. Hratchian, 
 J. V. Ortiz, A. F. Izmaylov, J. L. Sonnenberg, D. Williams-Young, 
 F. Ding, F. Lipparini, F. Egidi, J. Goings, B. Peng, A. Petrone, 
 T. Henderson, D. Ranasinghe, V. G. Zakrzewski, J. Gao, N. Rega, 
 G. Zheng, W. Liang, M. Hada, M. Ehara, K. Toyota, R. Fukuda, 
 J. Hasegawa, M. Ishida, T. Nakajima, Y. Honda, O. Kitao, H. Nakai, 
 T. Vreven, K. Throssell, J. A. Montgomery, Jr., J. E. Peralta, 
 F. Ogliaro, M. J. Bearpark, J. J. Heyd, E. N. Brothers, K. N. Kudin, 
 V. N. Staroverov, T. A. Keith, R. Kobayashi, J. Normand, 
 K. Raghavachari, A. P. Rendell, J. C. Burant, S. S. Iyengar, 
 J. Tomasi, M. Cossi, J. M. Millam, M. Klene, C. Adamo, R. Cammi, 
 J. W. Ochterski, R. L. Martin, K. Morokuma, O. Farkas, 
 J. B. Foresman, and D. J. Fox, Gaussian, Inc., Wallingford CT, 2016.
 
 ******************************************
 Gaussian 16:  ES64L-G16RevA.03 25-Dec-2016
                22-Jul-2020 
 ******************************************
 %rwf=/scratch/js1212.757588/G-Cis-R2-R2-Down-T-GP-SMD.rwf
 %nosave
 %nprocshared=20
 Will use up to   20 processors via shared memory.
 %mem=3000MB
 %oldchk=/data/js1212/200702_g16/G-Cis-R2-R2-Down-T-GPOF.chk
 %chk=/scratch/js1212.757588/G-Cis-R2-R2-Down-T-GP-SMD.chk
 Copying data from "/data/js1212/200702_g16/G-Cis-R2-R2-Down-T-GPOF.chk" to current chk file "/scratch/js1212.757588/G-Cis-R2-R2-Down-T-GP-SMD.chk"
 IOpt=  2 FromEx=T IUOpen= 4 IOptOp= 5 NList=   0 IFRang= 0 IUIn= 4 IUOut= 2.
 ----------------------------------------------------------------------
 # genecp pbe1pbe EmpiricalDispersion=GD3BJ scrf=(SMD,solvent=water) ge
 om=allcheck
 ----------------------------------------------------------------------
 1/29=7,38=1,172=1/1;
 2/12=2,40=1/2;
 3/5=7,11=2,14=-4,16=1,17=8,25=1,30=1,70=32201,72=1,74=-13,124=41/1,2,3;
 4//1;
 5/5=2,38=5,53=1/2;
 6/7=2,8=2,9=2,10=2,28=1/1;
 99/5=1,9=1/99;
 Structure from the checkpoint file:  "/scratch/js1212.757588/G-Cis-R2-R2-Down-T-GP-SMD.chk"
 -------------------
 Title Card Required
 -------------------
 Charge =  0 Multiplicity = 3
 Redundant internal coordinates found in file.  (old form).
 H,0,0.594024188,-3.5946296168,0.3986297374
 C,0,-0.4715218158,-3.4920394666,0.1591976127
 H,0,-0.8755706294,-4.4882005349,-0.0792020803
 H,0,-0.5388462372,-2.8395388255,-0.7234232384
 H,0,-1.4403969482,3.5222713256,0.167221935
 O,0,-0.7699895763,-0.4791129878,-1.0503897323
 H,0,-1.2939938129,3.1546858239,-2.0815983323
 O,0,-1.6884095581,0.3071707517,1.3935058044
 H,0,-0.5279450044,1.4121876459,0.7770069509
 C,0,-1.157865028,-2.8355560779,1.3366685198
 H,0,-2.4440178969,4.7894706697,0.9165982673
 H,0,-1.1712719569,-3.513994358,2.2124528139
 C,0,-2.414390165,4.0296285906,0.1173161833
 H,0,-1.1768951195,1.4547094559,-2.5667035894
 H,0,-2.4906998146,4.5666230595,-0.8378679062
 H,0,-0.5930912942,-1.9336022139,1.6111933044
 C,0,-1.6953983171,2.4033408858,-2.7712094346
 H,0,-1.4625389391,2.7187305652,-3.8022205691
 H,0,-2.5061772267,-1.1847695837,2.7108058971
 Ru,0,-2.6471736515,-0.4447373162,-0.1685362646
 H,0,-2.5600359399,1.9339454608,1.9248735482
 N,0,-2.5423694487,-2.4008849783,1.0381384624
 C,0,-3.1913532766,-1.9309296614,2.2774289583
 C,0,-3.5815194875,3.0654788133,0.3441133073
 H,0,-3.4674946158,3.3782110816,2.4659175456
 H,0,-3.6890108011,4.3457812735,-2.3784691218
 C,0,-3.4792262834,2.5208276877,1.7723970439
 C,0,-3.211388099,2.210847028,-2.6440173175
 P,0,-3.51831815,1.583482013,-0.8814107109
 H,0,-3.351499214,-2.7494171494,2.9985481174
 C,0,-3.9763956305,3.4861697511,-2.9959175435
 H,0,-2.8907046174,-3.6998445429,-0.5567489713
 H,0,-2.5385327015,-5.2254453081,1.4469713872
 H,0,-3.7556894829,3.7485936242,-4.0440539818
 C,0,-3.3493269962,-3.47492387,0.4131032357
 H,0,-4.8399244999,4.716992499,0.8894170437
 C,0,-3.2577257611,-1.3577228962,-1.6742351728
 C,0,-4.9056417755,3.8319195602,0.235197362
 H,0,-3.028244492,0.2110304299,-3.5119277454
 C,0,-3.6189141016,1.1243432747,-3.6406753381
 H,0,-5.1263955867,4.1911502582,-0.7779788195
 H,0,-3.4189852766,1.5035199753,-4.6563406258
 C,0,-4.4797900621,-1.2287458135,1.9629283182
 N,0,-4.4421648467,-0.4861121803,0.8412463923
 C,0,-3.5063183974,-4.7562691969,1.2181052822
 H,0,-4.3392505501,1.8918396895,2.043586304
 H,0,-4.3400179097,-3.0495277086,0.1941875088
 H,0,-5.0665398484,3.3483643897,-2.918012808
 H,0,-4.045982516,-4.6037306586,2.1646973543
 C,0,-5.3088193024,0.9998658465,-0.8361446529
 H,0,-4.0902756526,-5.4761778144,0.6252987004
 H,0,-5.7601390982,3.2375497934,0.5911693425
 C,0,-5.5109622281,0.2299629995,0.4324941072
 C,0,-5.6285961497,-1.2737457367,2.744601504
 H,0,-4.6894875145,0.8722618304,-3.5963488216
 H,0,-5.6462939795,-1.8811814787,3.6500786483
 H,0,-5.4039185088,0.3034491627,-1.6852893779
 H,0,-6.0607524245,1.7892665583,-0.9602605214
 C,0,-6.6841716138,0.2263270769,1.1835187379
 C,0,-6.7397665272,-0.5306479966,2.3509861401
 H,0,-7.5414964423,0.8123572487,0.8511723604
 H,0,-7.6510903323,-0.5453622161,2.9513461402
 O,0,-3.5482160762,-2.0019135525,-2.5933463643
 C,0,0.8766262347,0.1503778209,4.6788190428
 H,0,0.9163780654,-1.3763113228,-2.0710468918
 O,0,-0.0151627287,2.085541047,0.2548416502
 H,0,1.2987124206,0.9992990371,-3.0693505905
 O,0,1.4295977504,-1.1179521117,0.7421657132
 H,0,0.9190981766,1.7891926286,0.3090590323
 C,0,1.1779800573,0.4363443782,3.2162938221
 H,0,1.305971304,-2.8395775033,-3.0092365943
 C,0,1.6358984849,-1.8105015003,-2.7840467777
 H,0,1.9020938824,2.2506676353,-1.9748178542
 H,0,1.5671182943,-1.2395556989,-3.722315115
 C,0,2.0831299169,1.7593547742,-2.9410517218
 H,0,1.9744661908,2.5055684161,-3.7465877762
 H,0,2.4018388466,-1.6731145404,2.6615499228
 Ru,0,2.7792680902,0.4321396302,0.5177911514
 H,0,2.5075792554,-2.44944794,-0.2208296165
 N,0,2.6025721237,0.3798955989,2.8132130813
 C,0,3.1491155975,-0.9713338255,3.0657807219
 C,0,3.0678819472,-1.8592013195,-2.2462788583
 H,0,2.7473123568,-3.8029353625,-1.3887144877
 H,0,2.9842579491,-0.1230570977,-4.7219214674
 C,0,3.1279113924,-2.8226854932,-1.0533008088
 C,0,3.4883437486,1.14866879,-2.9993019972
 P,0,3.5280535419,-0.1292463827,-1.5793875131
 H,0,3.2898976715,-1.1569223855,4.1450592445
 C,0,3.7466805687,0.59798602,-4.4008356856
 H,0,4.4228151681,1.3659038501,3.0153621796
 H,0,2.5586159601,3.0879679808,2.5033510368
 H,0,3.7204155815,1.4399070212,-5.1134940866
 C,0,3.440304165,1.3774592696,3.5114773176
 H,0,3.7249891788,-3.4547217044,-3.5167732359
 C,0,3.6118201881,2.0561846163,0.4486950895
 C,0,4.0149220332,-2.4091264999,-3.3171708518
 H,0,4.459593182,2.6841350545,-1.7456641462
 C,0,4.527903077,2.2429162945,-2.7462621548
 H,0,3.9693480583,-1.8730477857,-4.2705314435
 H,0,4.3601705685,3.0543568279,-3.4744279358
 C,0,4.4368484874,-1.224883636,2.3279195414
 N,0,4.4489905862,-0.7568560363,1.0734059162
 C,0,2.8732983039,2.7826742716,3.5099052267
 H,0,4.1624917832,-2.9780656031,-0.708553499
 H,0,3.6058636155,1.0476168353,4.5566222006
 H,0,4.7371796794,0.1277766068,-4.4876140971
 H,0,2.013017323,2.8818812456,4.1875002446
 C,0,5.347966363,-0.3482988211,-1.1254356896
 H,0,3.6489657187,3.4855927845,3.8471795567
 H,0,5.0621706755,-2.4323495801,-2.9790894543
 C,0,5.4789426212,-0.9671644984,0.2383213827
 C,0,5.518675626,-1.9434360442,2.8250875059
 H,0,5.5537931806,1.875255661,-2.9044408936
 H,0,5.5093288743,-2.3151239679,3.8507647147
 H,0,5.741066461,0.6798524134,-1.0633748842
 H,0,5.9494348851,-0.8885307224,-1.8708159338
 C,0,6.5835582659,-1.7003116726,0.6723494842
 C,0,6.6005289045,-2.1861723996,1.9779499233
 H,0,7.4193933379,-1.8824411194,-0.0046274227
 H,0,7.4607371728,-2.7539600623,2.3377402938
 H,0,0.7045811764,-0.9981063406,0.0958725284
 O,0,4.1108851426,3.1200136741,0.4542479773
 H,0,-0.2081159372,0.2526526082,4.8353265438
 H,0,1.3751992687,0.8489554201,5.3698313337
 H,0,1.1515245206,-0.8740123425,4.9746238763
 H,0,0.6691007706,-0.2732614002,2.5497697432
 H,0,0.8082973742,1.4312753454,2.938460318
 H,0,-0.4247674582,0.4119468036,-0.8776886693
 Recover connectivity data from disk.
                           ----------------------------
                           !    Current Parameters    !
                           ! (Angstroms and Degrees)  !
 --------------------------                            --------------------------
 ! Name  Definition              Value                                          !
 --------------------------------------------------------------------------------
 ! R1    R(1,2)                  1.0969                                         !
 ! R2    R(2,3)                  1.1011                                         !
 ! R3    R(2,4)                  1.0997                                         !
 ! R4    R(2,10)                 1.5128                                         !
 ! R5    R(5,13)                 1.0993                                         !
 ! R6    R(5,66)                 2.0256                                         !
 ! R7    R(6,20)                 2.0743                                         !
 ! R8    R(6,128)                0.9711                                         !
 ! R9    R(7,17)                 1.096                                          !
 ! R10   R(8,20)                 1.9811                                         !
 ! R11   R(8,121)                3.0189                                         !
 ! R12   R(9,66)                 0.9945                                         !
 ! R13   R(10,12)                1.1079                                         !
 ! R14   R(10,16)                1.099                                          !
 ! R15   R(10,22)                1.4815                                         !
 ! R16   R(11,13)                1.1032                                         !
 ! R17   R(13,15)                1.0984                                         !
 ! R18   R(13,24)                1.5308                                         !
 ! R19   R(14,17)                1.1003                                         !
 ! R20   R(17,18)                1.103                                          !
 ! R21   R(17,28)                1.5334                                         !
 ! R22   R(19,23)                1.1018                                         !
 ! R23   R(20,29)                2.3196                                         !
 ! R24   R(20,37)                1.8637                                         !
 ! R25   R(20,44)                2.0599                                         !
 ! R26   R(21,27)                1.1012                                         !
 ! R27   R(22,23)                1.4758                                         !
 ! R28   R(22,35)                1.4817                                         !
 ! R29   R(23,30)                1.1025                                         !
 ! R30   R(23,43)                1.5007                                         !
 ! R31   R(24,27)                1.532                                          !
 ! R32   R(24,29)                1.9241                                         !
 ! R33   R(24,38)                1.5338                                         !
 ! R34   R(25,27)                1.1028                                         !
 ! R35   R(26,31)                1.0967                                         !
 ! R36   R(27,46)                1.0995                                         !
 ! R37   R(28,29)                1.8959                                         !
 ! R38   R(28,31)                1.5282                                         !
 ! R39   R(28,40)                1.5297                                         !
 ! R40   R(29,50)                1.8838                                         !
 ! R41   R(31,34)                1.1028                                         !
 ! R42   R(31,48)                1.1016                                         !
 ! R43   R(32,35)                1.0961                                         !
 ! R44   R(33,45)                1.0996                                         !
 ! R45   R(35,45)                1.5214                                         !
 ! R46   R(35,47)                1.1002                                         !
 ! R47   R(36,38)                1.1026                                         !
 ! R48   R(37,63)                1.1594                                         !
 ! R49   R(38,41)                1.0974                                         !
 ! R50   R(38,52)                1.1001                                         !
 ! R51   R(39,40)                1.0953                                         !
 ! R52   R(40,42)                1.1024                                         !
 ! R53   R(40,55)                1.1007                                         !
 ! R54   R(43,44)                1.3458                                         !
 ! R55   R(43,54)                1.3902                                         !
 ! R56   R(44,53)                1.3499                                         !
 ! R57   R(45,49)                1.1002                                         !
 ! R58   R(45,51)                1.1003                                         !
 ! R59   R(50,53)                1.4977                                         !
 ! R60   R(50,57)                1.1023                                         !
 ! R61   R(50,58)                1.0973                                         !
 ! R62   R(53,59)                1.393                                          !
 ! R63   R(54,56)                1.0905                                         !
 ! R64   R(54,60)                1.3935                                         !
 ! R65   R(59,60)                1.3925                                         !
 ! R66   R(59,61)                1.0904                                         !
 ! R67   R(60,62)                1.0914                                         !
 ! R68   R(64,70)                1.5204                                         !
 ! R69   R(64,123)               1.1007                                         !
 ! R70   R(64,124)               1.1019                                         !
 ! R71   R(64,125)               1.1011                                         !
 ! R72   R(65,72)                1.1021                                         !
 ! R73   R(66,69)                0.9816                                         !
 ! R74   R(67,75)                1.0998                                         !
 ! R75   R(68,78)                2.0675                                         !
 ! R76   R(68,121)               0.9786                                         !
 ! R77   R(69,78)                2.312                                          !
 ! R78   R(70,80)                1.4816                                         !
 ! R79   R(70,126)               1.0985                                         !
 ! R80   R(70,127)               1.0972                                         !
 ! R81   R(71,72)                1.1039                                         !
 ! R82   R(72,74)                1.1005                                         !
 ! R83   R(72,82)                1.5304                                         !
 ! R84   R(73,75)                1.099                                          !
 ! R85   R(75,76)                1.1034                                         !
 ! R86   R(75,86)                1.5333                                         !
 ! R87   R(77,81)                1.102                                          !
 ! R88   R(78,87)                2.2965                                         !
 ! R89   R(78,95)                1.8263                                         !
 ! R90   R(78,102)               2.1238                                         !
 ! R91   R(79,85)                1.1032                                         !
 ! R92   R(80,81)                1.4793                                         !
 ! R93   R(80,93)                1.478                                          !
 ! R94   R(81,88)                1.1041                                         !
 ! R95   R(81,101)               1.5057                                         !
 ! R96   R(82,85)                1.5346                                         !
 ! R97   R(82,87)                1.9103                                         !
 ! R98   R(82,96)                1.5317                                         !
 ! R99   R(83,85)                1.1037                                         !
 ! R100  R(84,89)                1.0974                                         !
 ! R101  R(85,104)               1.1015                                         !
 ! R102  R(86,87)                1.9107                                         !
 ! R103  R(86,89)                1.5278                                         !
 ! R104  R(86,98)                1.5304                                         !
 ! R105  R(87,108)               1.8884                                         !
 ! R106  R(89,92)                1.1034                                         !
 ! R107  R(89,106)               1.0999                                         !
 ! R108  R(90,93)                1.1007                                         !
 ! R109  R(91,103)               1.0979                                         !
 ! R110  R(93,103)               1.5153                                         !
 ! R111  R(93,105)               1.1084                                         !
 ! R112  R(94,96)                1.1033                                         !
 ! R113  R(95,122)               1.1751                                         !
 ! R114  R(96,99)                1.0947                                         !
 ! R115  R(96,110)               1.1007                                         !
 ! R116  R(97,98)                1.0957                                         !
 ! R117  R(98,100)               1.1031                                         !
 ! R118  R(98,113)               1.1012                                         !
 ! R119  R(101,102)              1.339                                          !
 ! R120  R(101,112)              1.3906                                         !
 ! R121  R(102,111)              1.3425                                         !
 ! R122  R(103,107)              1.0996                                         !
 ! R123  R(103,109)              1.0998                                         !
 ! R124  R(108,111)              1.5033                                         !
 ! R125  R(108,115)              1.1025                                         !
 ! R126  R(108,116)              1.0996                                         !
 ! R127  R(111,117)              1.395                                          !
 ! R128  R(112,114)              1.091                                          !
 ! R129  R(112,118)              1.3953                                         !
 ! R130  R(117,118)              1.3932                                         !
 ! R131  R(117,119)              1.0909                                         !
 ! R132  R(118,120)              1.0917                                         !
 ! A1    A(1,2,3)              108.6085                                         !
 ! A2    A(1,2,4)              106.8672                                         !
 ! A3    A(1,2,10)             108.1443                                         !
 ! A4    A(3,2,4)              109.9112                                         !
 ! A5    A(3,2,10)             113.2434                                         !
 ! A6    A(4,2,10)             109.8433                                         !
 ! A7    A(20,6,128)           103.3506                                         !
 ! A8    A(20,8,121)            83.1425                                         !
 ! A9    A(2,10,12)            110.7951                                         !
 ! A10   A(2,10,16)            108.507                                          !
 ! A11   A(2,10,22)            113.2329                                         !
 ! A12   A(12,10,16)           108.1388                                         !
 ! A13   A(12,10,22)           109.1255                                         !
 ! A14   A(16,10,22)           106.8449                                         !
 ! A15   A(5,13,11)            107.985                                          !
 ! A16   A(5,13,15)            109.0652                                         !
 ! A17   A(5,13,24)            112.2164                                         !
 ! A18   A(11,13,15)           106.9441                                         !
 ! A19   A(11,13,24)           107.8179                                         !
 ! A20   A(15,13,24)           112.5684                                         !
 ! A21   A(7,17,14)            107.5486                                         !
 ! A22   A(7,17,18)            108.3483                                         !
 ! A23   A(7,17,28)            113.3248                                         !
 ! A24   A(14,17,18)           108.7098                                         !
 ! A25   A(14,17,28)           110.0136                                         !
 ! A26   A(18,17,28)           108.7917                                         !
 ! A27   A(6,20,8)              84.4638                                         !
 ! A28   A(6,20,29)            102.9266                                         !
 ! A29   A(6,20,37)             86.8405                                         !
 ! A30   A(8,20,29)             95.2906                                         !
 ! A31   A(8,20,44)             92.4544                                         !
 ! A32   A(29,20,37)            93.2684                                         !
 ! A33   A(29,20,44)            80.849                                          !
 ! A34   A(37,20,44)            95.7812                                         !
 ! A35   A(10,22,23)           109.5835                                         !
 ! A36   A(10,22,35)           112.4131                                         !
 ! A37   A(23,22,35)           110.217                                          !
 ! A38   A(19,23,22)           105.8122                                         !
 ! A39   A(19,23,30)           109.6213                                         !
 ! A40   A(19,23,43)           107.4253                                         !
 ! A41   A(22,23,30)           112.1307                                         !
 ! A42   A(22,23,43)           110.5228                                         !
 ! A43   A(30,23,43)           111.0833                                         !
 ! A44   A(13,24,27)           108.1278                                         !
 ! A45   A(13,24,29)           111.4516                                         !
 ! A46   A(13,24,38)           109.4485                                         !
 ! A47   A(27,24,29)           108.5289                                         !
 ! A48   A(27,24,38)           107.5471                                         !
 ! A49   A(29,24,38)           111.5926                                         !
 ! A50   A(21,27,24)           111.9809                                         !
 ! A51   A(21,27,25)           108.5656                                         !
 ! A52   A(21,27,46)           108.2942                                         !
 ! A53   A(24,27,25)           108.0952                                         !
 ! A54   A(24,27,46)           112.4024                                         !
 ! A55   A(25,27,46)           107.3361                                         !
 ! A56   A(17,28,29)           106.1824                                         !
 ! A57   A(17,28,31)           111.779                                          !
 ! A58   A(17,28,40)           107.3676                                         !
 ! A59   A(29,28,31)           114.1528                                         !
 ! A60   A(29,28,40)           109.1212                                         !
 ! A61   A(31,28,40)           108.0198                                         !
 ! A62   A(20,29,24)           119.3439                                         !
 ! A63   A(20,29,28)           120.9466                                         !
 ! A64   A(20,29,50)            94.5128                                         !
 ! A65   A(24,29,28)           110.0346                                         !
 ! A66   A(24,29,50)           101.0754                                         !
 ! A67   A(28,29,50)           106.1845                                         !
 ! A68   A(26,31,28)           113.1588                                         !
 ! A69   A(26,31,34)           107.2256                                         !
 ! A70   A(26,31,48)           108.5155                                         !
 ! A71   A(28,31,34)           108.4966                                         !
 ! A72   A(28,31,48)           112.0061                                         !
 ! A73   A(34,31,48)           107.1599                                         !
 ! A74   A(22,35,32)           107.1041                                         !
 ! A75   A(22,35,45)           116.3279                                         !
 ! A76   A(22,35,47)           107.1025                                         !
 ! A77   A(32,35,45)           109.787                                          !
 ! A78   A(32,35,47)           106.2629                                         !
 ! A79   A(45,35,47)           109.7571                                         !
 ! A80   A(24,38,36)           107.9106                                         !
 ! A81   A(24,38,41)           113.7527                                         !
 ! A82   A(24,38,52)           112.1855                                         !
 ! A83   A(36,38,41)           107.2794                                         !
 ! A84   A(36,38,52)           106.7389                                         !
 ! A85   A(41,38,52)           108.6244                                         !
 ! A86   A(28,40,39)           111.8405                                         !
 ! A87   A(28,40,42)           107.9183                                         !
 ! A88   A(28,40,55)           113.2995                                         !
 ! A89   A(39,40,42)           107.2959                                         !
 ! A90   A(39,40,55)           109.1967                                         !
 ! A91   A(42,40,55)           106.9929                                         !
 ! A92   A(23,43,44)           114.1344                                         !
 ! A93   A(23,43,54)           125.2036                                         !
 ! A94   A(44,43,54)           120.637                                          !
 ! A95   A(20,44,43)           116.3607                                         !
 ! A96   A(20,44,53)           122.0625                                         !
 ! A97   A(43,44,53)           121.5324                                         !
 ! A98   A(33,45,35)           112.2517                                         !
 ! A99   A(33,45,49)           108.1667                                         !
 ! A100  A(33,45,51)           107.4618                                         !
 ! A101  A(35,45,49)           112.8976                                         !
 ! A102  A(35,45,51)           108.708                                          !
 ! A103  A(49,45,51)           107.0925                                         !
 ! A104  A(29,50,53)           107.9332                                         !
 ! A105  A(29,50,57)           105.0241                                         !
 ! A106  A(29,50,58)           115.1983                                         !
 ! A107  A(53,50,57)           108.4275                                         !
 ! A108  A(53,50,58)           111.9104                                         !
 ! A109  A(57,50,58)           107.9548                                         !
 ! A110  A(44,53,50)           114.9817                                         !
 ! A111  A(44,53,59)           120.1458                                         !
 ! A112  A(50,53,59)           124.869                                          !
 ! A113  A(43,54,56)           119.8876                                         !
 ! A114  A(43,54,60)           118.8708                                         !
 ! A115  A(56,54,60)           121.2412                                         !
 ! A116  A(53,59,60)           119.147                                          !
 ! A117  A(53,59,61)           119.7672                                         !
 ! A118  A(60,59,61)           121.0858                                         !
 ! A119  A(54,60,59)           119.6609                                         !
 ! A120  A(54,60,62)           120.216                                          !
 ! A121  A(59,60,62)           120.1224                                         !
 ! A122  A(70,64,123)          108.3382                                         !
 ! A123  A(70,64,124)          113.2245                                         !
 ! A124  A(70,64,125)          112.5766                                         !
 ! A125  A(123,64,124)         107.3275                                         !
 ! A126  A(123,64,125)         107.1139                                         !
 ! A127  A(124,64,125)         107.962                                          !
 ! A128  A(5,66,9)              98.057                                          !
 ! A129  A(5,66,69)            152.3947                                         !
 ! A130  A(9,66,69)            104.9119                                         !
 ! A131  A(78,68,121)          108.6712                                         !
 ! A132  A(66,69,78)           161.4281                                         !
 ! A133  A(64,70,80)           116.4311                                         !
 ! A134  A(64,70,126)          111.7365                                         !
 ! A135  A(64,70,127)          110.3267                                         !
 ! A136  A(80,70,126)          104.8172                                         !
 ! A137  A(80,70,127)          106.8364                                         !
 ! A138  A(126,70,127)         106.0243                                         !
 ! A139  A(65,72,71)           107.7052                                         !
 ! A140  A(65,72,74)           107.8418                                         !
 ! A141  A(65,72,82)           113.3338                                         !
 ! A142  A(71,72,74)           106.9207                                         !
 ! A143  A(71,72,82)           108.7642                                         !
 ! A144  A(74,72,82)           111.9986                                         !
 ! A145  A(67,75,73)           107.1002                                         !
 ! A146  A(67,75,76)           108.1783                                         !
 ! A147  A(67,75,86)           111.9623                                         !
 ! A148  A(73,75,76)           108.8623                                         !
 ! A149  A(73,75,86)           111.2495                                         !
 ! A150  A(76,75,86)           109.3823                                         !
 ! A151  A(68,78,69)            85.6782                                         !
 ! A152  A(68,78,87)            97.393                                          !
 ! A153  A(68,78,102)           93.7326                                         !
 ! A154  A(69,78,87)           108.8668                                         !
 ! A155  A(69,78,95)            80.8748                                         !
 ! A156  A(87,78,95)            91.9594                                         !
 ! A157  A(87,78,102)           81.1242                                         !
 ! A158  A(95,78,102)           98.5887                                         !
 ! A159  A(70,80,81)           110.0963                                         !
 ! A160  A(70,80,93)           113.0009                                         !
 ! A161  A(81,80,93)           109.0526                                         !
 ! A162  A(77,81,80)           105.5773                                         !
 ! A163  A(77,81,88)           109.7546                                         !
 ! A164  A(77,81,101)          107.036                                          !
 ! A165  A(80,81,88)           111.5636                                         !
 ! A166  A(80,81,101)          112.7144                                         !
 ! A167  A(88,81,101)          109.9789                                         !
 ! A168  A(72,82,85)           109.2529                                         !
 ! A169  A(72,82,87)           108.6177                                         !
 ! A170  A(72,82,96)           110.1378                                         !
 ! A171  A(85,82,87)           106.7233                                         !
 ! A172  A(85,82,96)           107.0919                                         !
 ! A173  A(87,82,96)           114.8516                                         !
 ! A174  A(79,85,82)           110.6211                                         !
 ! A175  A(79,85,83)           109.6257                                         !
 ! A176  A(79,85,104)          109.857                                          !
 ! A177  A(82,85,83)           107.9303                                         !
 ! A178  A(82,85,104)          111.6291                                         !
 ! A179  A(83,85,104)          107.0797                                         !
 ! A180  A(75,86,87)           104.9037                                         !
 ! A181  A(75,86,89)           109.4734                                         !
 ! A182  A(75,86,98)           109.3586                                         !
 ! A183  A(87,86,89)           115.9205                                         !
 ! A184  A(87,86,98)           109.9514                                         !
 ! A185  A(89,86,98)           107.1295                                         !
 ! A186  A(78,87,82)           117.4924                                         !
 ! A187  A(78,87,86)           120.5548                                         !
 ! A188  A(78,87,108)           97.0686                                         !
 ! A189  A(82,87,86)           109.9524                                         !
 ! A190  A(82,87,108)          102.1823                                         !
 ! A191  A(86,87,108)          106.0365                                         !
 ! A192  A(84,89,86)           112.8144                                         !
 ! A193  A(84,89,92)           107.2079                                         !
 ! A194  A(84,89,106)          108.7649                                         !
 ! A195  A(86,89,92)           108.2672                                         !
 ! A196  A(86,89,106)          112.2556                                         !
 ! A197  A(92,89,106)          107.259                                          !
 ! A198  A(80,93,90)           106.613                                          !
 ! A199  A(80,93,103)          114.414                                          !
 ! A200  A(80,93,105)          109.2256                                         !
 ! A201  A(90,93,103)          110.0762                                         !
 ! A202  A(90,93,105)          106.771                                          !
 ! A203  A(103,93,105)         109.4411                                         !
 ! A204  A(82,96,94)           107.7143                                         !
 ! A205  A(82,96,99)           114.037                                          !
 ! A206  A(82,96,110)          112.4014                                         !
 ! A207  A(94,96,99)           107.1941                                         !
 ! A208  A(94,96,110)          106.5951                                         !
 ! A209  A(99,96,110)          108.5078                                         !
 ! A210  A(86,98,97)           113.3639                                         !
 ! A211  A(86,98,100)          108.2724                                         !
 ! A212  A(86,98,113)          111.7371                                         !
 ! A213  A(97,98,100)          107.2852                                         !
 ! A214  A(97,98,113)          108.8869                                         !
 ! A215  A(100,98,113)         107.004                                          !
 ! A216  A(81,101,102)         114.0808                                         !
 ! A217  A(81,101,112)         125.2509                                         !
 ! A218  A(102,101,112)        120.5639                                         !
 ! A219  A(78,102,101)         115.7                                            !
 ! A220  A(78,102,111)         121.8788                                         !
 ! A221  A(101,102,111)        122.3414                                         !
 ! A222  A(91,103,93)          111.4735                                         !
 ! A223  A(91,103,107)         108.3988                                         !
 ! A224  A(91,103,109)         107.7934                                         !
 ! A225  A(93,103,107)         112.0729                                         !
 ! A226  A(93,103,109)         109.1767                                         !
 ! A227  A(107,103,109)        107.7676                                         !
 ! A228  A(87,108,111)         110.4742                                         !
 ! A229  A(87,108,115)         104.417                                          !
 ! A230  A(87,108,116)         114.9084                                         !
 ! A231  A(111,108,115)        107.5644                                         !
 ! A232  A(111,108,116)        111.4084                                         !
 ! A233  A(115,108,116)        107.5349                                         !
 ! A234  A(102,111,108)        115.6547                                         !
 ! A235  A(102,111,117)        119.7535                                         !
 ! A236  A(108,111,117)        124.5817                                         !
 ! A237  A(101,112,114)        120.3635                                         !
 ! A238  A(101,112,118)        118.4245                                         !
 ! A239  A(114,112,118)        121.2083                                         !
 ! A240  A(111,117,118)        118.9796                                         !
 ! A241  A(111,117,119)        120.0896                                         !
 ! A242  A(118,117,119)        120.9303                                         !
 ! A243  A(112,118,117)        119.9235                                         !
 ! A244  A(112,118,120)        120.0874                                         !
 ! A245  A(117,118,120)        119.989                                          !
 ! A246  A(8,121,68)           110.8748                                         !
 ! A247  L(13,5,66,7,-1)       178.2548                                         !
 ! A248  L(6,20,44,8,-1)       176.9183                                         !
 ! A249  L(8,20,37,6,-1)       171.3043                                         !
 ! A250  L(20,37,63,3,-1)      174.3991                                         !
 ! A251  L(68,78,95,69,-1)     166.553                                          !
 ! A252  L(69,78,102,68,-1)    179.4108                                         !
 ! A253  L(78,95,122,5,-1)     178.1341                                         !
 ! A254  L(13,5,66,7,-2)       197.7045                                         !
 ! A255  L(6,20,44,8,-2)       183.5488                                         !
 ! A256  L(8,20,37,6,-2)       173.1933                                         !
 ! A257  L(20,37,63,3,-2)      181.7652                                         !
 ! A258  L(68,78,95,69,-2)     174.7016                                         !
 ! A259  L(69,78,102,68,-2)    190.0146                                         !
 ! A260  L(78,95,122,5,-2)     177.4115                                         !
 ! D1    D(1,2,10,12)          -68.2897                                         !
 ! D2    D(1,2,10,16)           50.2843                                         !
 ! D3    D(1,2,10,22)          168.7249                                         !
 ! D4    D(3,2,10,12)           52.1219                                         !
 ! D5    D(3,2,10,16)          170.696                                          !
 ! D6    D(3,2,10,22)          -70.8635                                         !
 ! D7    D(4,2,10,12)          175.423                                          !
 ! D8    D(4,2,10,16)          -66.003                                          !
 ! D9    D(4,2,10,22)           52.4376                                         !
 ! D10   D(128,6,44,43)       -107.8387                                         !
 ! D11   D(128,6,44,53)         69.2138                                         !
 ! D12   D(11,13,66,9)          93.2555                                         !
 ! D13   D(11,13,66,69)        -52.9709                                         !
 ! D14   D(15,13,66,9)        -143.1163                                         !
 ! D15   D(15,13,66,69)         70.6573                                         !
 ! D16   D(24,13,66,9)         -22.4187                                         !
 ! D17   D(24,13,66,69)       -168.6451                                         !
 ! D18   D(128,6,20,8)         -48.7701                                         !
 ! D19   D(128,6,20,29)         45.4049                                         !
 ! D20   D(128,6,20,37)        138.0366                                         !
 ! D21   D(121,8,20,6)         -21.6094                                         !
 ! D22   D(121,8,20,29)       -124.1269                                         !
 ! D23   D(121,8,20,44)        154.8418                                         !
 ! D24   D(20,8,121,68)       -160.6621                                         !
 ! D25   D(2,10,22,23)         172.9066                                         !
 ! D26   D(2,10,22,35)          49.9847                                         !
 ! D27   D(12,10,22,23)         49.0031                                         !
 ! D28   D(12,10,22,35)        -73.9188                                         !
 ! D29   D(16,10,22,23)        -67.6941                                         !
 ! D30   D(16,10,22,35)        169.384                                          !
 ! D31   D(5,13,24,27)          64.1804                                         !
 ! D32   D(5,13,24,29)         -55.0229                                         !
 ! D33   D(5,13,24,38)        -178.9452                                         !
 ! D34   D(11,13,24,27)        -54.6098                                         !
 ! D35   D(11,13,24,29)       -173.8131                                         !
 ! D36   D(11,13,24,38)         62.2645                                         !
 ! D37   D(15,13,24,27)       -172.3259                                         !
 ! D38   D(15,13,24,29)         68.4708                                         !
 ! D39   D(15,13,24,38)        -55.4516                                         !
 ! D40   D(7,17,28,29)         -62.3563                                         !
 ! D41   D(7,17,28,31)          62.7255                                         !
 ! D42   D(7,17,28,40)        -178.9804                                         !
 ! D43   D(14,17,28,29)         58.075                                          !
 ! D44   D(14,17,28,31)       -176.8432                                         !
 ! D45   D(14,17,28,40)        -58.5491                                         !
 ! D46   D(18,17,28,29)        177.058                                          !
 ! D47   D(18,17,28,31)        -57.8602                                         !
 ! D48   D(18,17,28,40)         60.4339                                         !
 ! D49   D(6,20,29,24)        -103.8685                                         !
 ! D50   D(6,20,29,28)          38.8177                                         !
 ! D51   D(6,20,29,50)         150.7388                                         !
 ! D52   D(8,20,29,24)         -18.3509                                         !
 ! D53   D(8,20,29,28)         124.3353                                         !
 ! D54   D(8,20,29,50)        -123.7435                                         !
 ! D55   D(37,20,29,24)        168.6266                                         !
 ! D56   D(37,20,29,28)        -48.6872                                         !
 ! D57   D(37,20,29,50)         63.2339                                         !
 ! D58   D(44,20,29,24)         73.2906                                         !
 ! D59   D(44,20,29,28)       -144.0232                                         !
 ! D60   D(44,20,29,50)        -32.1021                                         !
 ! D61   D(8,20,44,43)         -59.5824                                         !
 ! D62   D(8,20,44,53)         118.0292                                         !
 ! D63   D(29,20,44,43)       -154.5492                                         !
 ! D64   D(29,20,44,53)         23.0624                                         !
 ! D65   D(37,20,44,43)        113.0589                                         !
 ! D66   D(37,20,44,53)        -69.3295                                         !
 ! D67   D(10,22,23,19)         52.4055                                         !
 ! D68   D(10,22,23,30)        -67.0626                                         !
 ! D69   D(10,22,23,43)        168.4039                                         !
 ! D70   D(35,22,23,19)        176.6188                                         !
 ! D71   D(35,22,23,30)         57.1507                                         !
 ! D72   D(35,22,23,43)        -67.3828                                         !
 ! D73   D(10,22,35,32)        -64.1645                                         !
 ! D74   D(10,22,35,45)         59.0278                                         !
 ! D75   D(10,22,35,47)       -177.8203                                         !
 ! D76   D(23,22,35,32)        173.2702                                         !
 ! D77   D(23,22,35,45)        -63.5375                                         !
 ! D78   D(23,22,35,47)         59.6144                                         !
 ! D79   D(19,23,43,44)         77.6859                                         !
 ! D80   D(19,23,43,54)       -100.4939                                         !
 ! D81   D(22,23,43,44)        -37.3027                                         !
 ! D82   D(22,23,43,54)        144.5175                                         !
 ! D83   D(30,23,43,44)       -162.4325                                         !
 ! D84   D(30,23,43,54)         19.3877                                         !
 ! D85   D(13,24,27,21)        -63.2471                                         !
 ! D86   D(13,24,27,25)         56.2979                                         !
 ! D87   D(13,24,27,46)        174.5769                                         !
 ! D88   D(29,24,27,21)         57.7891                                         !
 ! D89   D(29,24,27,25)        177.334                                          !
 ! D90   D(29,24,27,46)        -64.387                                          !
 ! D91   D(38,24,27,21)        178.6558                                         !
 ! D92   D(38,24,27,25)        -61.7993                                         !
 ! D93   D(38,24,27,46)         56.4797                                         !
 ! D94   D(13,24,29,20)         99.2703                                         !
 ! D95   D(13,24,29,28)        -47.1308                                         !
 ! D96   D(13,24,29,50)       -159.0745                                         !
 ! D97   D(27,24,29,20)        -19.6941                                         !
 ! D98   D(27,24,29,28)       -166.0952                                         !
 ! D99   D(27,24,29,50)         81.9611                                         !
 ! D100  D(38,24,29,20)       -138.0286                                         !
 ! D101  D(38,24,29,28)         75.5703                                         !
 ! D102  D(38,24,29,50)        -36.3734                                         !
 ! D103  D(13,24,38,36)        -50.9279                                         !
 ! D104  D(13,24,38,41)         67.9717                                         !
 ! D105  D(13,24,38,52)       -168.2297                                         !
 ! D106  D(27,24,38,36)         66.3123                                         !
 ! D107  D(27,24,38,41)       -174.7881                                         !
 ! D108  D(27,24,38,52)        -50.9895                                         !
 ! D109  D(29,24,38,36)       -174.7674                                         !
 ! D110  D(29,24,38,41)        -55.8678                                         !
 ! D111  D(29,24,38,52)         67.9308                                         !
 ! D112  D(17,28,29,20)        -62.5773                                         !
 ! D113  D(17,28,29,24)         83.1981                                         !
 ! D114  D(17,28,29,50)       -168.2147                                         !
 ! D115  D(31,28,29,20)        173.8132                                         !
 ! D116  D(31,28,29,24)        -40.4114                                         !
 ! D117  D(31,28,29,50)         68.1758                                         !
 ! D118  D(40,28,29,20)         52.8633                                         !
 ! D119  D(40,28,29,24)       -161.3614                                         !
 ! D120  D(40,28,29,50)        -52.7742                                         !
 ! D121  D(17,28,31,26)        -57.6646                                         !
 ! D122  D(17,28,31,34)         61.1992                                         !
 ! D123  D(17,28,31,48)        179.2828                                         !
 ! D124  D(29,28,31,26)         62.8714                                         !
 ! D125  D(29,28,31,34)       -178.2648                                         !
 ! D126  D(29,28,31,48)        -60.1813                                         !
 ! D127  D(40,28,31,26)       -175.569                                          !
 ! D128  D(40,28,31,34)        -56.7052                                         !
 ! D129  D(40,28,31,48)         61.3784                                         !
 ! D130  D(17,28,40,39)         53.2727                                         !
 ! D131  D(17,28,40,42)        -64.5163                                         !
 ! D132  D(17,28,40,55)        177.2107                                         !
 ! D133  D(29,28,40,39)        -61.4037                                         !
 ! D134  D(29,28,40,42)       -179.1927                                         !
 ! D135  D(29,28,40,55)         62.5343                                         !
 ! D136  D(31,28,40,39)        173.9728                                         !
 ! D137  D(31,28,40,42)         56.1838                                         !
 ! D138  D(31,28,40,55)        -62.0892                                         !
 ! D139  D(20,29,50,53)         43.907                                          !
 ! D140  D(20,29,50,57)        -71.6157                                         !
 ! D141  D(20,29,50,58)        169.7621                                         !
 ! D142  D(24,29,50,53)        -77.181                                          !
 ! D143  D(24,29,50,57)        167.2964                                         !
 ! D144  D(24,29,50,58)         48.6741                                         !
 ! D145  D(28,29,50,53)        167.965                                          !
 ! D146  D(28,29,50,57)         52.4423                                         !
 ! D147  D(28,29,50,58)        -66.1799                                         !
 ! D148  D(22,35,45,33)        -59.1164                                         !
 ! D149  D(22,35,45,49)         63.4649                                         !
 ! D150  D(22,35,45,51)       -177.8574                                         !
 ! D151  D(32,35,45,33)         62.6706                                         !
 ! D152  D(32,35,45,49)       -174.7482                                         !
 ! D153  D(32,35,45,51)        -56.0704                                         !
 ! D154  D(47,35,45,33)        179.1228                                         !
 ! D155  D(47,35,45,49)        -58.2959                                         !
 ! D156  D(47,35,45,51)         60.3818                                         !
 ! D157  D(23,43,44,20)         -1.0436                                         !
 ! D158  D(23,43,44,53)       -178.6688                                         !
 ! D159  D(54,43,44,20)        177.2278                                         !
 ! D160  D(54,43,44,53)         -0.3974                                         !
 ! D161  D(23,43,54,56)         -2.0543                                         !
 ! D162  D(23,43,54,60)        177.7308                                         !
 ! D163  D(44,43,54,56)        179.8763                                         !
 ! D164  D(44,43,54,60)         -0.3386                                         !
 ! D165  D(20,44,53,50)          2.6551                                         !
 ! D166  D(20,44,53,59)       -176.6988                                         !
 ! D167  D(43,44,53,50)       -179.8558                                         !
 ! D168  D(43,44,53,59)          0.7903                                         !
 ! D169  D(29,50,53,44)        -34.4697                                         !
 ! D170  D(29,50,53,59)        144.8493                                         !
 ! D171  D(57,50,53,44)         78.7974                                         !
 ! D172  D(57,50,53,59)       -101.8836                                         !
 ! D173  D(58,50,53,44)       -162.2401                                         !
 ! D174  D(58,50,53,59)         17.0789                                         !
 ! D175  D(44,53,59,60)         -0.4378                                         !
 ! D176  D(44,53,59,61)        179.5849                                         !
 ! D177  D(50,53,59,60)       -179.7239                                         !
 ! D178  D(50,53,59,61)          0.2987                                         !
 ! D179  D(43,54,60,59)          0.6677                                         !
 ! D180  D(43,54,60,62)       -179.6459                                         !
 ! D181  D(56,54,60,59)       -179.5502                                         !
 ! D182  D(56,54,60,62)          0.1362                                         !
 ! D183  D(53,59,60,54)         -0.2878                                         !
 ! D184  D(53,59,60,62)       -179.9745                                         !
 ! D185  D(61,59,60,54)        179.6892                                         !
 ! D186  D(61,59,60,62)          0.0025                                         !
 ! D187  D(123,64,70,80)       178.5727                                         !
 ! D188  D(123,64,70,126)      -61.0543                                         !
 ! D189  D(123,64,70,127)       56.63                                           !
 ! D190  D(124,64,70,80)        59.6475                                         !
 ! D191  D(124,64,70,126)     -179.9794                                         !
 ! D192  D(124,64,70,127)      -62.2951                                         !
 ! D193  D(125,64,70,80)       -63.1618                                         !
 ! D194  D(125,64,70,126)       57.2113                                         !
 ! D195  D(125,64,70,127)      174.8956                                         !
 ! D196  D(5,66,69,78)         172.446                                          !
 ! D197  D(9,66,69,78)          27.1316                                         !
 ! D198  D(121,68,78,69)        41.8718                                         !
 ! D199  D(121,68,78,87)       -66.6221                                         !
 ! D200  D(121,68,78,102)     -148.1428                                         !
 ! D201  D(78,68,121,8)        -98.1742                                         !
 ! D202  D(66,69,78,68)         -1.1784                                         !
 ! D203  D(66,69,78,87)         95.1682                                         !
 ! D204  D(66,69,78,95)       -175.88                                           !
 ! D205  D(66,69,102,101)      -52.6263                                         !
 ! D206  D(66,69,102,111)      132.98                                           !
 ! D207  D(64,70,80,81)         60.3707                                         !
 ! D208  D(64,70,80,93)        -61.833                                          !
 ! D209  D(126,70,80,81)       -63.636                                          !
 ! D210  D(126,70,80,93)       174.1603                                         !
 ! D211  D(127,70,80,81)      -175.8692                                         !
 ! D212  D(127,70,80,93)        61.9271                                         !
 ! D213  D(65,72,82,85)         65.4155                                         !
 ! D214  D(65,72,82,87)        -50.6432                                         !
 ! D215  D(65,72,82,96)       -177.219                                          !
 ! D216  D(71,72,82,85)        -54.3433                                         !
 ! D217  D(71,72,82,87)       -170.402                                          !
 ! D218  D(71,72,82,96)         63.0222                                         !
 ! D219  D(74,72,82,85)       -172.298                                          !
 ! D220  D(74,72,82,87)         71.6433                                         !
 ! D221  D(74,72,82,96)        -54.9325                                         !
 ! D222  D(67,75,86,87)        -59.3492                                         !
 ! D223  D(67,75,86,89)         65.6731                                         !
 ! D224  D(67,75,86,98)       -177.239                                          !
 ! D225  D(73,75,86,87)         60.4522                                         !
 ! D226  D(73,75,86,89)       -174.5255                                         !
 ! D227  D(73,75,86,98)        -57.4375                                         !
 ! D228  D(76,75,86,87)       -179.2479                                         !
 ! D229  D(76,75,86,89)        -54.2255                                         !
 ! D230  D(76,75,86,98)         62.8624                                         !
 ! D231  D(68,78,87,82)        -12.8366                                         !
 ! D232  D(68,78,87,86)        126.0944                                         !
 ! D233  D(68,78,87,108)      -120.549                                          !
 ! D234  D(69,78,87,82)       -100.7756                                         !
 ! D235  D(69,78,87,86)         38.1554                                         !
 ! D236  D(69,78,87,108)       151.512                                          !
 ! D237  D(95,78,87,82)        178.1994                                         !
 ! D238  D(95,78,87,86)        -42.8696                                         !
 ! D239  D(95,78,87,108)        70.487                                          !
 ! D240  D(102,78,87,82)        79.8103                                         !
 ! D241  D(102,78,87,86)      -141.2588                                         !
 ! D242  D(102,78,87,108)      -27.9022                                         !
 ! D243  D(68,78,102,101)      -63.737                                          !
 ! D244  D(68,78,102,111)      119.439                                          !
 ! D245  D(87,78,102,101)     -160.6478                                         !
 ! D246  D(87,78,102,111)       22.5282                                         !
 ! D247  D(95,78,102,101)      108.6983                                         !
 ! D248  D(95,78,102,111)      -68.1257                                         !
 ! D249  D(70,80,81,77)         46.7137                                         !
 ! D250  D(70,80,81,88)        -72.4599                                         !
 ! D251  D(70,80,81,101)       163.2275                                         !
 ! D252  D(93,80,81,77)        171.2236                                         !
 ! D253  D(93,80,81,88)         52.05                                           !
 ! D254  D(93,80,81,101)       -72.2626                                         !
 ! D255  D(70,80,93,90)       -170.3401                                         !
 ! D256  D(70,80,93,103)       -48.4136                                         !
 ! D257  D(70,80,93,105)        74.6389                                         !
 ! D258  D(81,80,93,90)         66.8736                                         !
 ! D259  D(81,80,93,103)      -171.2                                            !
 ! D260  D(81,80,93,105)       -48.1475                                         !
 ! D261  D(77,81,101,102)       74.4186                                         !
 ! D262  D(77,81,101,112)     -101.865                                          !
 ! D263  D(80,81,101,102)      -41.2233                                         !
 ! D264  D(80,81,101,112)      142.4932                                         !
 ! D265  D(88,81,101,102)     -166.4025                                         !
 ! D266  D(88,81,101,112)       17.314                                          !
 ! D267  D(72,82,85,79)        -63.9617                                         !
 ! D268  D(72,82,85,83)         55.9687                                         !
 ! D269  D(72,82,85,104)       173.3803                                         !
 ! D270  D(87,82,85,79)         53.2991                                         !
 ! D271  D(87,82,85,83)        173.2294                                         !
 ! D272  D(87,82,85,104)       -69.359                                          !
 ! D273  D(96,82,85,79)        176.7686                                         !
 ! D274  D(96,82,85,83)        -63.301                                          !
 ! D275  D(96,82,85,104)        54.1106                                         !
 ! D276  D(72,82,87,78)         80.4583                                         !
 ! D277  D(72,82,87,86)        -62.5377                                         !
 ! D278  D(72,82,87,108)      -174.8115                                         !
 ! D279  D(85,82,87,78)        -37.2216                                         !
 ! D280  D(85,82,87,86)        179.7824                                         !
 ! D281  D(85,82,87,108)        67.5086                                         !
 ! D282  D(96,82,87,78)       -155.7349                                         !
 ! D283  D(96,82,87,86)         61.2691                                         !
 ! D284  D(96,82,87,108)       -51.0048                                         !
 ! D285  D(72,82,96,94)        -64.5683                                         !
 ! D286  D(72,82,96,99)         54.2641                                         !
 ! D287  D(72,82,96,110)       178.3052                                         !
 ! D288  D(85,82,96,94)         54.1296                                         !
 ! D289  D(85,82,96,99)        172.962                                          !
 ! D290  D(85,82,96,110)       -62.9969                                         !
 ! D291  D(87,82,96,94)        172.4358                                         !
 ! D292  D(87,82,96,99)        -68.7318                                         !
 ! D293  D(87,82,96,110)        55.3093                                         !
 ! D294  D(75,86,87,78)        -47.5548                                         !
 ! D295  D(75,86,87,82)         94.1296                                         !
 ! D296  D(75,86,87,108)      -156.1192                                         !
 ! D297  D(89,86,87,78)       -168.4128                                         !
 ! D298  D(89,86,87,82)        -26.7284                                         !
 ! D299  D(89,86,87,108)        83.0228                                         !
 ! D300  D(98,86,87,78)         69.9314                                         !
 ! D301  D(98,86,87,82)       -148.3842                                         !
 ! D302  D(98,86,87,108)       -38.6329                                         !
 ! D303  D(75,86,89,84)        -55.424                                          !
 ! D304  D(75,86,89,92)         63.0549                                         !
 ! D305  D(75,86,89,106)      -178.7377                                         !
 ! D306  D(87,86,89,84)         62.9463                                         !
 ! D307  D(87,86,89,92)       -178.5748                                         !
 ! D308  D(87,86,89,106)       -60.3674                                         !
 ! D309  D(98,86,89,84)       -173.9065                                         !
 ! D310  D(98,86,89,92)        -55.4276                                         !
 ! D311  D(98,86,89,106)        62.7798                                         !
 ! D312  D(75,86,98,97)         63.7056                                         !
 ! D313  D(75,86,98,100)       -55.2081                                         !
 ! D314  D(75,86,98,113)      -172.8009                                         !
 ! D315  D(87,86,98,97)        -50.9748                                         !
 ! D316  D(87,86,98,100)      -169.8884                                         !
 ! D317  D(87,86,98,113)        72.5187                                         !
 ! D318  D(89,86,98,97)       -177.7374                                         !
 ! D319  D(89,86,98,100)        63.3489                                         !
 ! D320  D(89,86,98,113)       -54.2439                                         !
 ! D321  D(78,87,108,111)       37.0077                                         !
 ! D322  D(78,87,108,115)      -78.3701                                         !
 ! D323  D(78,87,108,116)      164.0902                                         !
 ! D324  D(82,87,108,111)      -83.168                                          !
 ! D325  D(82,87,108,115)      161.4542                                         !
 ! D326  D(82,87,108,116)       43.9145                                         !
 ! D327  D(86,87,108,111)      161.663                                          !
 ! D328  D(86,87,108,115)       46.2852                                         !
 ! D329  D(86,87,108,116)      -71.2545                                         !
 ! D330  D(80,93,103,91)       -48.705                                          !
 ! D331  D(80,93,103,107)       72.9979                                         !
 ! D332  D(80,93,103,109)     -167.6835                                         !
 ! D333  D(90,93,103,91)        71.3076                                         !
 ! D334  D(90,93,103,107)     -166.9895                                         !
 ! D335  D(90,93,103,109)      -47.6709                                         !
 ! D336  D(105,93,103,91)     -171.6411                                         !
 ! D337  D(105,93,103,107)     -49.9382                                         !
 ! D338  D(105,93,103,109)      69.3804                                         !
 ! D339  D(81,101,102,78)        7.5996                                         !
 ! D340  D(81,101,102,111)    -175.5926                                         !
 ! D341  D(112,101,102,78)    -175.9248                                         !
 ! D342  D(112,101,102,111)      0.883                                          !
 ! D343  D(81,101,112,114)      -4.5231                                         !
 ! D344  D(81,101,112,118)     174.7856                                         !
 ! D345  D(102,101,112,114)    179.4177                                         !
 ! D346  D(102,101,112,118)     -1.2736                                         !
 ! D347  D(78,102,111,108)      -2.0865                                         !
 ! D348  D(78,102,111,117)     176.8106                                         !
 ! D349  D(101,102,111,108)   -178.699                                          !
 ! D350  D(101,102,111,117)      0.1981                                         !
 ! D351  D(87,108,111,102)     -25.9362                                         !
 ! D352  D(87,108,111,117)     155.2267                                         !
 ! D353  D(115,108,111,102)     87.4513                                         !
 ! D354  D(115,108,111,117)    -91.3857                                         !
 ! D355  D(116,108,111,102)   -154.9327                                         !
 ! D356  D(116,108,111,117)     26.2303                                         !
 ! D357  D(102,111,117,118)     -0.8422                                         !
 ! D358  D(102,111,117,119)    179.4282                                         !
 ! D359  D(108,111,117,118)    177.9503                                         !
 ! D360  D(108,111,117,119)     -1.7793                                         !
 ! D361  D(101,112,118,117)      0.6155                                         !
 ! D362  D(101,112,118,120)   -179.5342                                         !
 ! D363  D(114,112,118,117)    179.9181                                         !
 ! D364  D(114,112,118,120)     -0.2316                                         !
 ! D365  D(111,117,118,112)      0.4185                                         !
 ! D366  D(111,117,118,120)   -179.432                                          !
 ! D367  D(119,117,118,112)   -179.8543                                         !
 ! D368  D(119,117,118,120)      0.2952                                         !
 --------------------------------------------------------------------------------
 Stoichiometry    C40H74N4O6P2Ru2(3)
 Framework group  C1[X(C40H74N4O6P2Ru2)]
 Deg. of freedom   378
 Full point group                 C1      NOp   1
 Largest Abelian subgroup         C1      NOp   1
 Largest concise Abelian subgroup C1      NOp   1
                         Standard orientation:                         
 ---------------------------------------------------------------------
 Center     Atomic      Atomic             Coordinates (Angstroms)
 Number     Number       Type             X           Y           Z
 ---------------------------------------------------------------------
      1          1           0        0.840520   -2.253105   -2.784171
      2          6           0       -0.230158   -2.037442   -2.886052
      3          1           0       -0.571017   -2.405574   -3.866215
      4          1           0       -0.341574   -0.944512   -2.837069
      5          1           0       -1.641705    1.800462    2.894724
      6          8           0       -0.722944    0.624911   -1.069750
      7          1           0       -1.479592    3.473847    1.349653
      8          8           0       -1.681426   -1.008340    0.891924
      9          1           0       -0.595352    0.160019    1.526897
     10          6           0       -0.952912   -2.679940   -1.722739
     11          1           0       -2.721201    1.840100    4.311669
     12          1           0       -0.920443   -3.784590   -1.801169
     13          6           0       -2.646058    2.085857    3.238800
     14          1           0       -1.256538    2.941281   -0.325333
     15          1           0       -2.759354    3.174914    3.151148
     16          1           0       -0.445563   -2.387912   -0.792593
     17          6           0       -1.834795    3.616733    0.322705
     18          1           0       -1.625744    4.657966    0.024698
     19          1           0       -2.398694   -2.960961    0.341732
     20         44           0       -2.595661   -0.160915   -0.647757
     21          1           0       -2.652696   -0.583335    2.493326
     22          7           0       -2.363148   -2.243423   -1.597840
     23          6           0       -3.036594   -3.039160   -0.553257
     24          6           0       -3.748979    1.319463    2.504349
     25          1           0       -3.648124   -0.268726    3.946686
     26          1           0       -3.946248    4.289287    2.052227
     27          6           0       -3.607731   -0.166512    2.849355
     28          6           0       -3.335112    3.346998    0.156129
     29         15           0       -3.595934    1.521574    0.597008
     30          1           0       -3.142191   -4.098161   -0.841261
     31          6           0       -4.180564    4.316535    0.981191
     32          1           0       -2.633612   -1.648263   -3.578984
     33          1           0       -2.178938   -4.146393   -3.716820
     34          1           0       -3.980340    5.342251    0.629076
     35          6           0       -3.102421   -2.348180   -2.877649
     36          1           0       -5.107769    1.731920    4.114319
     37          6           0       -3.151991    0.563678   -2.272228
     38          6           0       -5.119370    1.784067    3.013037
     39          1           0       -3.028382    2.969551   -1.976833
     40          6           0       -3.676175    3.559690   -1.319789
     41          1           0       -5.365739    2.817548    2.738220
     42          1           0       -3.503982    4.622204   -1.557985
     43          6           0       -4.367965   -2.437694   -0.210140
     44          7           0       -4.381133   -1.091995   -0.213537
     45          6           0       -3.175257   -3.732976   -3.503393
     46          1           0       -4.425268   -0.772763    2.433539
     47          1           0       -4.118791   -1.968135   -2.696232
     48          1           0       -5.259522    4.134192    0.854399
     49          1           0       -3.720431   -4.456658   -2.879204
     50          6           0       -5.345681    1.093197    0.046163
     51          1           0       -3.714323   -3.660157   -4.459844
     52          1           0       -5.933311    1.126633    2.673275
     53          6           0       -5.494495   -0.396101    0.100035
     54          6           0       -5.509066   -3.156509    0.127481
     55          1           0       -4.728466    3.342796   -1.559118
     56          1           0       -5.485283   -4.246740    0.124270
     57          1           0       -5.399197    1.410819   -1.008037
     58          1           0       -6.146543    1.604813    0.594645
     59          6           0       -6.662671   -1.067449    0.453768
     60          6           0       -6.666379   -2.459862    0.469732
     61          1           0       -7.556495   -0.499087    0.712483
     62          1           0       -7.572984   -3.002060    0.744047
     63          8           0       -3.404041    0.961021   -3.331813
     64          6           0        0.899036   -3.731710    2.714489
     65          1           0        1.013586    1.041583   -2.295062
     66          8           0       -0.127983    0.986511    1.822672
     67          1           0        1.241315    3.201249   -0.856209
     68          8           0        1.518521   -1.136903   -0.494076
     69          1           0        0.823356    0.812782    1.654215
     70          6           0        1.176909   -2.345102    2.156210
     71          1           0        1.492109    1.027322   -4.010854
     72          6           0        1.756866    1.421853   -3.014456
     73          1           0        1.767705    3.005753    0.820899
     74          1           0        1.648987    2.515906   -3.064146
     75          6           0        1.976386    3.544749   -0.113824
     76          1           0        1.818024    4.623826    0.053638
     77          1           0        2.530222   -3.004408    0.158900
     78         44           0        2.766478   -0.041393    0.737671
     79          1           0        2.675610   -1.031552   -2.079109
     80          7           0        2.600899   -1.987008    1.958358
     81          6           0        3.232817   -2.924162    1.004029
     82          6           0        3.190794    1.001635   -2.683684
[...]
  Beta virt. eigenvalues --    5.19324   5.19680   5.19791   5.19903   5.20441
  Beta virt. eigenvalues --    5.20678   5.21272   5.21440   5.21947   5.22212
  Beta virt. eigenvalues --    5.22287   5.22404   5.22965   5.23003   5.23369
  Beta virt. eigenvalues --    5.23651   5.23726   5.24151   5.24689   5.24788
  Beta virt. eigenvalues --    5.25180   5.25276   5.25376   5.25909   5.26064
  Beta virt. eigenvalues --    5.26215   5.26351   5.26854   5.27001   5.27309
  Beta virt. eigenvalues --    5.27711   5.27856   5.28052   5.28446   5.28506
  Beta virt. eigenvalues --    5.29112   5.29168   5.29758   5.29878   5.30027
  Beta virt. eigenvalues --    5.30262   5.30549   5.30909   5.31035   5.31744
  Beta virt. eigenvalues --    5.32267   5.32895   5.32972   5.33231   5.33543
  Beta virt. eigenvalues --    5.33869   5.34258   5.34677   5.34913   5.35258
  Beta virt. eigenvalues --    5.35526   5.35563   5.36060   5.36137   5.36380
  Beta virt. eigenvalues --    5.36456   5.37078   5.37181   5.37430   5.37739
  Beta virt. eigenvalues --    5.37902   5.38044   5.38238   5.38468   5.38623
  Beta virt. eigenvalues --    5.38897   5.39340   5.39561   5.39834   5.39906
  Beta virt. eigenvalues --    5.40086   5.40250   5.40430   5.40795   5.41118
  Beta virt. eigenvalues --    5.41294   5.41346   5.41703   5.41888   5.42540
  Beta virt. eigenvalues --    5.42729   5.42875   5.42968   5.43215   5.43517
  Beta virt. eigenvalues --    5.43660   5.44043   5.44151   5.44451   5.44944
  Beta virt. eigenvalues --    5.45359   5.45749   5.46268   5.46352   5.46635
  Beta virt. eigenvalues --    5.46826   5.46901   5.47083   5.47498   5.48089
  Beta virt. eigenvalues --    5.48549   5.48826   5.49581   5.49641   5.49873
  Beta virt. eigenvalues --    5.50427   5.50939   5.51017   5.51120   5.51515
  Beta virt. eigenvalues --    5.51689   5.51861   5.52158   5.52487   5.53054
  Beta virt. eigenvalues --    5.53159   5.53452   5.53588   5.53777   5.54300
  Beta virt. eigenvalues --    5.55043   5.55402   5.55511   5.55658   5.56003
  Beta virt. eigenvalues --    5.56354   5.56509   5.56718   5.57224   5.57609
  Beta virt. eigenvalues --    5.58081   5.58603   5.58948   5.59277   5.59484
  Beta virt. eigenvalues --    5.59616   5.59754   5.60952   5.61161   5.61279
  Beta virt. eigenvalues --    5.61473   5.62148   5.62706   5.63161   5.63321
  Beta virt. eigenvalues --    5.63609   5.64517   5.65304   5.66215   5.67323
  Beta virt. eigenvalues --    5.68025   5.68155   5.68907   5.70418   5.71106
  Beta virt. eigenvalues --    5.71764   5.72960   5.73671   5.74647   5.76486
  Beta virt. eigenvalues --    5.78928   5.79150   5.80600   5.82951   5.86941
  Beta virt. eigenvalues --    5.88183   5.88487   5.89880   5.89934   5.90066
  Beta virt. eigenvalues --    5.93784   5.94409   5.98001   5.99701   6.00236
  Beta virt. eigenvalues --    6.00873   6.01309   6.01522   6.01953   6.02619
  Beta virt. eigenvalues --    6.02693   6.02875   6.03251   6.03973   6.04022
  Beta virt. eigenvalues --    6.04591   6.04855   6.05811   6.06052   6.06333
  Beta virt. eigenvalues --    6.06820   6.07352   6.07413   6.07901   6.08225
  Beta virt. eigenvalues --    6.08641   6.09349   6.09755   6.09984   6.10285
  Beta virt. eigenvalues --    6.10877   6.10948   6.11736   6.12593   6.13107
  Beta virt. eigenvalues --    6.13534   6.14854   6.15260   6.16026   6.16600
  Beta virt. eigenvalues --    6.17299   6.18173   6.18815   6.19154   6.19208
  Beta virt. eigenvalues --    6.20615   6.21092   6.21820   6.23343   6.23750
  Beta virt. eigenvalues --    6.25586   6.25685   6.27217   6.27454   6.29100
  Beta virt. eigenvalues --    6.29442   6.30188   6.31385   6.32059   6.33169
  Beta virt. eigenvalues --    6.34620   6.35185   6.36232   6.37573   6.40891
  Beta virt. eigenvalues --    6.41872   6.44813   6.46944   6.51396   6.52933
  Beta virt. eigenvalues --    6.54087   6.56625   6.58012   6.58907   6.60396
  Beta virt. eigenvalues --    6.61023   6.62467   6.66686   6.69013   6.71709
  Beta virt. eigenvalues --    6.72689   6.76513   6.77940   6.79324   6.80092
  Beta virt. eigenvalues --    6.80772   6.82771   6.84308   6.85929   6.86917
  Beta virt. eigenvalues --    6.87799   6.88483   6.89486   6.90466   6.92269
  Beta virt. eigenvalues --    6.94024   6.95505   6.96796   7.07863   7.08612
  Beta virt. eigenvalues --    7.16544   7.25062   7.27575   7.33172   7.47596
  Beta virt. eigenvalues --    7.49318   7.59531   8.01264   8.53657   8.69811
  Beta virt. eigenvalues --    9.78918   9.90835  10.01612  10.05040  10.07824
  Beta virt. eigenvalues --   10.17012  10.78739  11.02260  11.36304  12.26193
  Beta virt. eigenvalues --   12.29917  12.42741  12.44262  12.71705  12.76736
  Beta virt. eigenvalues --   12.77153  12.86737  12.93218  13.07005  13.08343
  Beta virt. eigenvalues --   13.22593  13.25080  13.26143  13.28638  13.45388
  Beta virt. eigenvalues --   13.48522  13.55484  13.56313  13.57774  13.68171
  Beta virt. eigenvalues --   13.70023  13.72728  13.75623  13.78060  13.82665
  Beta virt. eigenvalues --   13.84716  13.86025  13.88255  13.90639  14.00417
  Beta virt. eigenvalues --   14.08183  14.10920  14.15945  14.21619  14.30625
  Beta virt. eigenvalues --   14.41305  15.07350  15.08622  35.51874  35.57924
  Beta virt. eigenvalues --   35.69402  35.69762  35.75831  35.79738  46.32785
  Beta virt. eigenvalues --   46.37934
          Condensed to atoms (all electrons):
          Atomic-Atomic Spin Densities.
 Mulliken charges and spin densities:
               1          2
     1  H    0.131908   0.000124
     2  C   -0.368392   0.000431
     3  H    0.116736   0.000222
     4  H    0.134215   0.000359
     5  H    0.139083   0.000813
     6  O   -0.749092   0.001954
     7  H    0.128718  -0.000087
     8  O   -0.634368   0.809068
     9  H    0.331007  -0.008917
    10  C   -0.122603   0.001546
    11  H    0.099269   0.000309
    12  H    0.121851   0.000052
    13  C   -0.387596   0.001556
    14  H    0.119166  -0.000190
    15  H    0.117310  -0.000068
    16  H    0.140758   0.003875
    17  C   -0.348922   0.000248
    18  H    0.111337  -0.000012
    19  H    0.177303  -0.002546
    20  Ru   0.927561   0.102140
    21  H    0.145407  -0.014680
    22  N   -0.215449   0.015758
    23  C   -0.126959  -0.001005
    24  C    0.020632   0.000185
    25  H    0.114151   0.002876
    26  H    0.122026   0.000025
    27  C   -0.374522   0.042663
    28  C    0.013223  -0.000244
    29  P    0.078956   0.005993
    30  H    0.129693  -0.000110
    31  C   -0.333668  -0.000141
    32  H    0.131183   0.000138
    33  H    0.113472  -0.000034
    34  H    0.109359   0.000051
    35  C   -0.125763  -0.001036
    36  H    0.108673   0.000380
    37  C   -0.140366   0.014247
    38  C   -0.327767   0.002675
    39  H    0.131623   0.000180
    40  C   -0.368412  -0.000363
    41  H    0.126347   0.000370
    42  H    0.114811  -0.000034
    43  C    0.100724   0.000653
    44  N   -0.148473   0.001457
    45  C   -0.326607   0.000310
    46  H    0.125961  -0.001032
    47  H    0.143214   0.000242
    48  H    0.116044   0.000007
    49  H    0.111500  -0.000028
    50  C   -0.245372   0.002696
    51  H    0.118569   0.000134
    52  H    0.112860  -0.000062
    53  C    0.034563  -0.000884
    54  C   -0.136851   0.001263
    55  H    0.126871   0.000068
    56  H    0.164345   0.000217
    57  H    0.177417  -0.001015
    58  H    0.142388   0.000198
    59  C   -0.101016   0.000881
    60  C   -0.140985  -0.000492
    61  H    0.167113  -0.000050
    62  H    0.164526   0.000014
    63  O   -0.251220   0.021776
    64  C   -0.337042   0.000978
    65  H    0.120638  -0.000774
    66  O   -0.592390   0.045348
    67  H    0.126206  -0.000519
    68  O   -0.812153   0.006584
    69  H    0.291508   0.014647
    70  C   -0.117317  -0.001745
    71  H    0.103308   0.000259
    72  C   -0.376429   0.000368
    73  H    0.129957  -0.002787
    74  H    0.125330   0.000012
    75  C   -0.340853   0.002072
    76  H    0.110611   0.001699
    77  H    0.169114  -0.000242
    78  Ru   0.661693   0.921763
    79  H    0.145241   0.000438
    80  N   -0.205792  -0.005338
    81  C   -0.119359   0.003238
    82  C    0.029230  -0.003411
    83  H    0.102570  -0.000129
    84  H    0.119080   0.000055
    85  C   -0.410940   0.000803
    86  C    0.007470  -0.001614
    87  P    0.052221  -0.017351
    88  H    0.123278  -0.000665
    89  C   -0.337425  -0.000511
    90  H    0.146071  -0.000090
    91  H    0.127828  -0.001949
    92  H    0.106864  -0.000006
    93  C   -0.117047  -0.000054
    94  H    0.106250  -0.000418
    95  C   -0.268361  -0.039128
    96  C   -0.340296  -0.000391
    97  H    0.144517  -0.000483
    98  C   -0.374313   0.000144
    99  H    0.118491   0.000050
   100  H    0.107143  -0.000081
   101  C    0.103667  -0.000065
   102  N   -0.156484   0.071027
   103  C   -0.346271   0.001034
   104  H    0.119587  -0.000020
   105  H    0.116619  -0.000393
   106  H    0.111508   0.000077
   107  H    0.117667   0.000072
   108  C   -0.236718   0.000547
   109  H    0.122911   0.000003
   110  H    0.113445   0.000025
   111  C    0.031572   0.000136
   112  C   -0.164041   0.004302
   113  H    0.112681  -0.000047
   114  H    0.160372   0.001781
   115  H    0.161983  -0.000323
   116  H    0.141330  -0.001033
   117  C   -0.135936   0.003248
   118  C   -0.141891   0.000057
   119  H    0.160994   0.001498
   120  H    0.161237  -0.000161
   121  H    0.287455  -0.003954
   122  O   -0.345577  -0.000539
   123  H    0.122470  -0.000109
   124  H    0.110529  -0.000022
   125  H    0.111890   0.000267
   126  H    0.129972  -0.001136
   127  H    0.118107  -0.000487
   128  H    0.298556  -0.001683
 Sum of Mulliken charges =  -0.00000   2.00000
 Mulliken charges and spin densities with hydrogens summed into heavy atoms:
               1          2
     2  C    0.014467   0.001136
     6  O   -0.450536   0.000271
     8  O   -0.634368   0.809068
    10  C    0.140006   0.005473
    13  C   -0.031933   0.002610
    17  C    0.010299  -0.000041
    20  Ru   0.927561   0.102140
    22  N   -0.215449   0.015758
    23  C    0.180037  -0.003661
    24  C    0.020632   0.000185
    27  C    0.010998   0.029827
    28  C    0.013223  -0.000244
    29  P    0.078956   0.005993
    31  C    0.013761  -0.000058
    35  C    0.148634  -0.000655
    37  C   -0.140366   0.014247
    38  C    0.020112   0.003364
    40  C    0.004894  -0.000149
    43  C    0.100724   0.000653
    44  N   -0.148473   0.001457
    45  C    0.016934   0.000382
    50  C    0.074433   0.001879
    53  C    0.034563  -0.000884
    54  C    0.027494   0.001480
    59  C    0.066097   0.000831
    60  C    0.023541  -0.000478
    63  O   -0.251220   0.021776
    64  C    0.007847   0.001115
    66  O    0.030124   0.051078
    68  O   -0.524698   0.002630
    70  C    0.130762  -0.003368
    72  C   -0.027154  -0.000135
    75  C    0.025919   0.000465
    78  Ru   0.661693   0.921763
    80  N   -0.205792  -0.005338
    81  C    0.173033   0.002331
    82  C    0.029230  -0.003411
    85  C   -0.043543   0.001091
    86  C    0.007470  -0.001614
    87  P    0.052221  -0.017351
    89  C    0.000026  -0.000385
    93  C    0.145643  -0.000537
    95  C   -0.268361  -0.039128
    96  C   -0.002111  -0.000733
    98  C   -0.009973  -0.000467
   101  C    0.103667  -0.000065
   102  N   -0.156484   0.071027
   103  C    0.022135  -0.000841
   108  C    0.066594  -0.000809
   111  C    0.031572   0.000136
   112  C   -0.003669   0.006083
   117  C    0.025058   0.004746
   118  C    0.019345  -0.000105
   122  O   -0.345577  -0.000539
 Electronic spatial extent (au):  <R**2>=          37965.3696
 Charge=             -0.0000 electrons
 Dipole moment (field-independent basis, Debye):
    X=             -7.6990    Y=             -7.3579    Z=             -2.0272  Tot=             10.8409
 Quadrupole moment (field-independent basis, Debye-Ang):
   XX=           -239.5787   YY=           -327.3605   ZZ=           -392.0436
   XY=             -4.7848   XZ=            -26.4864   YZ=             -6.7098
 Traceless Quadrupole moment (field-independent basis, Debye-Ang):
   XX=             80.0822   YY=             -7.6995   ZZ=            -72.3827
   XY=             -4.7848   XZ=            -26.4864   YZ=             -6.7098
 Octapole moment (field-independent basis, Debye-Ang**2):
  XXX=           -203.4796  YYY=           -107.9345  ZZZ=              3.3820  XYY=            -49.8296
  XXY=           -178.1090  XXZ=            -37.0631  XZZ=            -24.7596  YZZ=            -73.6853
  YYZ=            -11.8887  XYZ=           -100.9524
 Hexadecapole moment (field-independent basis, Debye-Ang**3):
 XXXX=         -25624.1114 YYYY=         -10871.9383 ZZZZ=          -8954.4332 XXXY=           -137.5424
 XXXZ=           -861.2386 YYYX=             -7.7411 YYYZ=            -36.0400 ZZZX=             92.0874
 ZZZY=            -13.5652 XXYY=          -6095.1903 XXZZ=          -6974.3209 YYZZ=          -3433.6049
 XXYZ=           -133.8866 YYXZ=            102.0781 ZZXY=            -55.7654
 N-N= 1.059325825089D+04 E-N=-2.842627116705D+04  KE= 2.970202713591D+03
 1\1\GINC-NODE266\SP\UPBE1PBE\GenECP\C40H74N4O6P2Ru2(3)\JS1212\23-Jul-2
 020\0\\# genecp pbe1pbe EmpiricalDispersion=GD3BJ scrf=(SMD,solvent=wa
 ter) geom=allcheck\\Title Card Required\\0,3\H,0,0.594024188,-3.594629
 6168,0.3986297374\C,0,-0.4715218158,-3.4920394666,0.1591976127\H,0,-0.
 8755706294,-4.4882005349,-0.0792020803\H,0,-0.5388462372,-2.8395388255
 ,-0.7234232384\H,0,-1.4403969482,3.5222713256,0.167221935\O,0,-0.76998
 95763,-0.4791129878,-1.0503897323\H,0,-1.2939938129,3.1546858239,-2.08
 15983323\O,0,-1.6884095581,0.3071707517,1.3935058044\H,0,-0.5279450044
 ,1.4121876459,0.7770069509\C,0,-1.157865028,-2.8355560779,1.3366685198
 \H,0,-2.4440178969,4.7894706697,0.9165982673\H,0,-1.1712719569,-3.5139
 94358,2.2124528139\C,0,-2.414390165,4.0296285906,0.1173161833\H,0,-1.1
 768951195,1.4547094559,-2.5667035894\H,0,-2.4906998146,4.5666230595,-0
 .8378679062\H,0,-0.5930912942,-1.9336022139,1.6111933044\C,0,-1.695398
 3171,2.4033408858,-2.7712094346\H,0,-1.4625389391,2.7187305652,-3.8022
 205691\H,0,-2.5061772267,-1.1847695837,2.7108058971\Ru,0,-2.6471736515
 ,-0.4447373162,-0.1685362646\H,0,-2.5600359399,1.9339454608,1.92487354
 82\N,0,-2.5423694487,-2.4008849783,1.0381384624\C,0,-3.1913532766,-1.9
 309296614,2.2774289583\C,0,-3.5815194875,3.0654788133,0.3441133073\H,0
 ,-3.4674946158,3.3782110816,2.4659175456\H,0,-3.6890108011,4.345781273
 5,-2.3784691218\C,0,-3.4792262834,2.5208276877,1.7723970439\C,0,-3.211
 388099,2.210847028,-2.6440173175\P,0,-3.51831815,1.583482013,-0.881410
 7109\H,0,-3.351499214,-2.7494171494,2.9985481174\C,0,-3.9763956305,3.4
 861697511,-2.9959175435\H,0,-2.8907046174,-3.6998445429,-0.5567489713\
 H,0,-2.5385327015,-5.2254453081,1.4469713872\H,0,-3.7556894829,3.74859
 36242,-4.0440539818\C,0,-3.3493269962,-3.47492387,0.4131032357\H,0,-4.
 8399244999,4.716992499,0.8894170437\C,0,-3.2577257611,-1.3577228962,-1
 .6742351728\C,0,-4.9056417755,3.8319195602,0.235197362\H,0,-3.02824449
 2,0.2110304299,-3.5119277454\C,0,-3.6189141016,1.1243432747,-3.6406753
 381\H,0,-5.1263955867,4.1911502582,-0.7779788195\H,0,-3.4189852766,1.5
 035199753,-4.6563406258\C,0,-4.4797900621,-1.2287458135,1.9629283182\N
 ,0,-4.4421648467,-0.4861121803,0.8412463923\C,0,-3.5063183974,-4.75626
 91969,1.2181052822\H,0,-4.3392505501,1.8918396895,2.043586304\H,0,-4.3
 400179097,-3.0495277086,0.1941875088\H,0,-5.0665398484,3.3483643897,-2
 .918012808\H,0,-4.045982516,-4.6037306586,2.1646973543\C,0,-5.30881930
 24,0.9998658465,-0.8361446529\H,0,-4.0902756526,-5.4761778144,0.625298
 7004\H,0,-5.7601390982,3.2375497934,0.5911693425\C,0,-5.5109622281,0.2
 299629995,0.4324941072\C,0,-5.6285961497,-1.2737457367,2.744601504\H,0
 ,-4.6894875145,0.8722618304,-3.5963488216\H,0,-5.6462939795,-1.8811814
 787,3.6500786483\H,0,-5.4039185088,0.3034491627,-1.6852893779\H,0,-6.0
 607524245,1.7892665583,-0.9602605214\C,0,-6.6841716138,0.2263270769,1.
 1835187379\C,0,-6.7397665272,-0.5306479966,2.3509861401\H,0,-7.5414964
 423,0.8123572487,0.8511723604\H,0,-7.6510903323,-0.5453622161,2.951346
 1402\O,0,-3.5482160762,-2.0019135525,-2.5933463643\C,0,0.8766262347,0.
 1503778209,4.6788190428\H,0,0.9163780654,-1.3763113228,-2.0710468918\O
 ,0,-0.0151627287,2.085541047,0.2548416502\H,0,1.2987124206,0.999299037
 1,-3.0693505905\O,0,1.4295977504,-1.1179521117,0.7421657132\H,0,0.9190
 981766,1.7891926286,0.3090590323\C,0,1.1779800573,0.4363443782,3.21629
 38221\H,0,1.305971304,-2.8395775033,-3.0092365943\C,0,1.6358984849,-1.
 8105015003,-2.7840467777\H,0,1.9020938824,2.2506676353,-1.9748178542\H
 ,0,1.5671182943,-1.2395556989,-3.722315115\C,0,2.0831299169,1.75935477
 42,-2.9410517218\H,0,1.9744661908,2.5055684161,-3.7465877762\H,0,2.401
 8388466,-1.6731145404,2.6615499228\Ru,0,2.7792680902,0.4321396302,0.51
 77911514\H,0,2.5075792554,-2.44944794,-0.2208296165\N,0,2.6025721237,0
 .3798955989,2.8132130813\C,0,3.1491155975,-0.9713338255,3.0657807219\C
 ,0,3.0678819472,-1.8592013195,-2.2462788583\H,0,2.7473123568,-3.802935
 3625,-1.3887144877\H,0,2.9842579491,-0.1230570977,-4.7219214674\C,0,3.
 1279113924,-2.8226854932,-1.0533008088\C,0,3.4883437486,1.14866879,-2.
 9993019972\P,0,3.5280535419,-0.1292463827,-1.5793875131\H,0,3.28989767
 15,-1.1569223855,4.1450592445\C,0,3.7466805687,0.59798602,-4.400835685
 6\H,0,4.4228151681,1.3659038501,3.0153621796\H,0,2.5586159601,3.087967
 9808,2.5033510368\H,0,3.7204155815,1.4399070212,-5.1134940866\C,0,3.44
 0304165,1.3774592696,3.5114773176\H,0,3.7249891788,-3.4547217044,-3.51
 67732359\C,0,3.6118201881,2.0561846163,0.4486950895\C,0,4.0149220332,-
 2.4091264999,-3.3171708518\H,0,4.459593182,2.6841350545,-1.7456641462\
 C,0,4.527903077,2.2429162945,-2.7462621548\H,0,3.9693480583,-1.8730477
 857,-4.2705314435\H,0,4.3601705685,3.0543568279,-3.4744279358\C,0,4.43
 68484874,-1.224883636,2.3279195414\N,0,4.4489905862,-0.7568560363,1.07
 34059162\C,0,2.8732983039,2.7826742716,3.5099052267\H,0,4.1624917832,-
 2.9780656031,-0.708553499\H,0,3.6058636155,1.0476168353,4.5566222006\H
 ,0,4.7371796794,0.1277766068,-4.4876140971\H,0,2.013017323,2.881881245
 6,4.1875002446\C,0,5.347966363,-0.3482988211,-1.1254356896\H,0,3.64896
 57187,3.4855927845,3.8471795567\H,0,5.0621706755,-2.4323495801,-2.9790
 894543\C,0,5.4789426212,-0.9671644984,0.2383213827\C,0,5.518675626,-1.
 9434360442,2.8250875059\H,0,5.5537931806,1.875255661,-2.9044408936\H,0
 ,5.5093288743,-2.3151239679,3.8507647147\H,0,5.741066461,0.6798524134,
 -1.0633748842\H,0,5.9494348851,-0.8885307224,-1.8708159338\C,0,6.58355
 82659,-1.7003116726,0.6723494842\C,0,6.6005289045,-2.1861723996,1.9779
 499233\H,0,7.4193933379,-1.8824411194,-0.0046274227\H,0,7.4607371728,-
 2.7539600623,2.3377402938\H,0,0.7045811764,-0.9981063406,0.0958725284\
 O,0,4.1108851426,3.1200136741,0.4542479773\H,0,-0.2081159372,0.2526526
 082,4.8353265438\H,0,1.3751992687,0.8489554201,5.3698313337\H,0,1.1515
 245206,-0.8740123425,4.9746238763\H,0,0.6691007706,-0.2732614002,2.549
 7697432\H,0,0.8082973742,1.4312753454,2.938460318\H,0,-0.4247674582,0.
 4119468036,-0.8776886693\\Version=ES64L-G16RevA.03\State=3-A\HF=-3109.
 9366065\S2=2.014365\S2-1=0.\S2A=2.000128\RMSD=7.541e-10\Dipole=-3.1731
 485,-2.0722128,1.9566067\Quadrupole=56.8606778,-40.8970456,-15.9636322
 ,-24.6758191,-8.9899464,-19.8036257\PG=C01 [X(C40H74N4O6P2Ru2)]\\@


 A MAN SHOULD NEVER BE ASHAMED TO OWN HE HAS BEEN IN THE WRONG
 WHICH IS BUT SAYING IN OTHER WORDS,
 THAT HE IS WISER TODAY THAN HE WAS YESTERDAY.

                          -- JONATHAN SWIFT
 Job cpu time:       7 days 23 hours  3 minutes 40.9 seconds.
 Elapsed time:       0 days  9 hours 34 minutes  8.3 seconds.
 File lengths (MBytes):  RWF=   7573 Int=      0 D2E=      0 Chk=    591 Scr=      1
 Normal termination of Gaussian 16 at Thu Jul 23 02:24:27 2020.
