 Entering Gaussian System, Link 0=g16
 Initial command:
 /cluster/chemistry/gaussian/g16/l1.exe "/scratch/js1212.752481/scratch/Gau-17416.inp" -scrdir="/scratch/js1212.752481/scratch/"
 Entering Link 1 = /cluster/chemistry/gaussian/g16/l1.exe PID=     17417.
  
 Copyright (c) 1988,1990,1992,1993,1995,1998,2003,2009,2016,
            Gaussian, Inc.  All Rights Reserved.
  
 This is part of the Gaussian(R) 16 program.  It is based on
 the Gaussian(R) 09 system (copyright 2009, Gaussian, Inc.),
 the Gaussian(R) 03 system (copyright 2003, Gaussian, Inc.),
 the Gaussian(R) 98 system (copyright 1998, Gaussian, Inc.),
 the Gaussian(R) 94 system (copyright 1995, Gaussian, Inc.),
 the Gaussian 92(TM) system (copyright 1992, Gaussian, Inc.),
 the Gaussian 90(TM) system (copyright 1990, Gaussian, Inc.),
 the Gaussian 88(TM) system (copyright 1988, Gaussian, Inc.),
 the Gaussian 86(TM) system (copyright 1986, Carnegie Mellon
 University), and the Gaussian 82(TM) system (copyright 1983,
 Carnegie Mellon University). Gaussian is a federally registered
 trademark of Gaussian, Inc.
  
 This software contains proprietary and confidential information,
 including trade secrets, belonging to Gaussian, Inc.
  
 This software is provided under written license and may be
 used, copied, transmitted, or stored only in accord with that
 written license.
  
 The following legend is applicable only to US Government
 contracts under FAR:
  
                    RESTRICTED RIGHTS LEGEND
  
 Use, reproduction and disclosure by the US Government is
 subject to restrictions as set forth in subparagraphs (a)
 and (c) of the Commercial Computer Software - Restricted
 Rights clause in FAR 52.227-19.
  
 Gaussian, Inc.
 340 Quinnipiac St., Bldg. 40, Wallingford CT 06492
  
  
 ---------------------------------------------------------------
 Warning -- This program may not be used in any manner that
 competes with the business of Gaussian, Inc. or will provide
 assistance to any competitor of Gaussian, Inc.  The licensee
 of this program is prohibited from giving any competitor of
 Gaussian, Inc. access to this program.  By using this program,
 the user acknowledges that Gaussian, Inc. is engaged in the
 business of creating and licensing software in the field of
 computational chemistry and represents and warrants to the
 licensee that it is not a competitor of Gaussian, Inc. and that
 it will not use this program in any manner prohibited above.
 ---------------------------------------------------------------
  

 Cite this work as:
 Gaussian 16, Revision A.03,
 M. J. Frisch, G. W. Trucks, H. B. Schlegel, G. E. Scuseria, 
 M. A. Robb, J. R. Cheeseman, G. Scalmani, V. Barone, 
 G. A. Petersson, H. Nakatsuji, X. Li, M. Caricato, A. V. Marenich, 
 J. Bloino, B. G. Janesko, R. Gomperts, B. Mennucci, H. P. Hratchian, 
 J. V. Ortiz, A. F. Izmaylov, J. L. Sonnenberg, D. Williams-Young, 
 F. Ding, F. Lipparini, F. Egidi, J. Goings, B. Peng, A. Petrone, 
 T. Henderson, D. Ranasinghe, V. G. Zakrzewski, J. Gao, N. Rega, 
 G. Zheng, W. Liang, M. Hada, M. Ehara, K. Toyota, R. Fukuda, 
 J. Hasegawa, M. Ishida, T. Nakajima, Y. Honda, O. Kitao, H. Nakai, 
 T. Vreven, K. Throssell, J. A. Montgomery, Jr., J. E. Peralta, 
 F. Ogliaro, M. J. Bearpark, J. J. Heyd, E. N. Brothers, K. N. Kudin, 
 V. N. Staroverov, T. A. Keith, R. Kobayashi, J. Normand, 
 K. Raghavachari, A. P. Rendell, J. C. Burant, S. S. Iyengar, 
 J. Tomasi, M. Cossi, J. M. Millam, M. Klene, C. Adamo, R. Cammi, 
 J. W. Ochterski, R. L. Martin, K. Morokuma, O. Farkas, 
 J. B. Foresman, and D. J. Fox, Gaussian, Inc., Wallingford CT, 2016.
 
 ******************************************
 Gaussian 16:  ES64L-G16RevA.03 25-Dec-2016
                29-Jun-2020 
 ******************************************
 %rwf=/scratch/js1212.752481/GMe-Cis-Mono-D-0-OO-Scan.rwf
 %nosave
 %nprocshared=20
 Will use up to   20 processors via shared memory.
 %mem=3000MB
 %oldchk=/data/js1212/200629_g16/GMe-Cis-Mono-D-0-GPOF.chk
 %chk=/scratch/js1212.752481/GMe-Cis-Mono-D-0-OO-Scan.chk
 Copying data from "/data/js1212/200629_g16/GMe-Cis-Mono-D-0-GPOF.chk" to current chk file "/scratch/js1212.752481/GMe-Cis-Mono-D-0-OO-Scan.chk"
 IOpt=  2 FromEx=T IUOpen= 4 IOptOp= 5 NList=   0 IFRang= 0 IUIn= 4 IUOut= 2.
 ----------------------------------------------------------------------
 # opt=ModRedundant genecp pbe1pbe EmpiricalDispersion=GD3BJ NoSymm Geo
 m=AllCheck
 ----------------------------------------------------------------------
 1/18=120,19=15,26=3,29=7,38=1/1,3;
 2/9=110,12=2,15=1,40=1/2;
 3/5=7,11=2,14=-4,16=1,17=8,25=1,30=1,71=1,74=-13,124=41/1,2,3;
 4//1;
 5/5=2,38=5/2;
 6/7=2,8=2,9=2,10=2,28=1/1;
 7/30=1/1,2,3,16;
 1/18=20,19=15,26=3/3(2);
 2/9=110,15=1/2;
 99//99;
 2/9=110,15=1/2;
 3/5=7,6=1,11=2,14=-2,16=1,17=8,25=1,30=1,71=1,74=-13,82=7,124=41/1,2,3;
 4/5=5,16=3,69=1/1;
 5/5=2,38=5/2;
 7/30=1/1,2,3,16;
 1/18=20,19=15,26=3/3(-5);
 2/9=110,15=1/2;
 6/7=2,8=2,9=2,10=2,19=2,28=1/1;
 99/9=1/99;
 Structure from the checkpoint file:  "/scratch/js1212.752481/GMe-Cis-Mono-D-0-OO-Scan.chk"
 -------------------
 Title Card Required
 -------------------
 Charge =  0 Multiplicity = 2
 Redundant internal coordinates found in file.  (old form).
 O,0,-0.5796653818,-2.7585529562,-0.451215585
 O,0,0.1248173968,-0.5268376468,-2.0099633455
 C,0,2.3150289021,-2.3506677327,-0.9319652376
 H,0,2.3304684256,-0.0122999733,-1.7268061185
 N,0,2.0264558335,-1.202582386,-0.0671971291
 C,0,2.568047091,0.035146358,-0.650398959
 C,0,-2.6474842072,0.7505484487,-1.9403049729
 C,0,-3.6811597264,-0.1937090003,0.5901631637
 P,0,-2.1296807025,0.2835230083,-0.2558129652
 H,0,3.6639856477,0.1011576617,-0.5226412974
 C,0,2.5627350358,-1.4184778035,1.2754501675
 C,0,-0.4853502923,-1.0725297045,1.7518465157
 C,0,1.8829077266,1.2696631795,-0.1340384921
 N,0,0.5654728802,1.124330342,0.1140685351
 C,0,-1.6734116636,1.8944567241,0.5960135026
 C,0,-0.2160866262,2.1898213963,0.3900010645
 C,0,2.4912962463,2.5148236574,-0.0351578638
 H,0,3.561764516,2.612333048,-0.219648147
 H,0,-1.8533849788,1.7068622474,1.6697837884
 H,0,-2.3030080805,2.7480678164,0.3012548446
 C,0,0.3389863996,3.4650382776,0.4672312242
 C,0,1.7077937101,3.6253536158,0.2714981914
 H,0,-0.3006503032,4.3209019403,0.6852965546
 H,0,2.1609002959,4.615390945,0.3450886523
 O,0,-0.7403080944,-1.2524167364,2.8705588169
 H,0,-3.4133389269,1.5399405136,-1.9310846729
 H,0,-3.0372876584,-0.1518180015,-2.4330745689
 H,0,-1.7445124959,1.0516855945,-2.4881667592
 H,0,-3.4609690382,-0.4237734461,1.6424055327
 H,0,-4.0657612042,-1.1052587731,0.109801071
 H,0,-4.4435762128,0.59766911,0.5305771572
 H,0,1.817166546,-3.2304970238,-0.5062361994
 H,0,3.4056683064,-2.512718812,-1.0219157951
 H,0,1.8589037063,-2.1524941286,-1.9103460364
 H,0,2.3452062847,-0.5464988385,1.9083034301
 H,0,3.6578781252,-1.5781969959,1.2446602405
 H,0,2.0807678716,-2.3007948236,1.7152184799
 Ru,0,-0.1760561748,-0.7893514793,-0.0696738804
 H,0,-1.3310891793,-3.0629076224,0.0702470927
 Recover connectivity data from disk.
 The following ModRedundant input section has been read:
 B       1       2 S   5 -0.273                                                
 

 GradGradGradGradGradGradGradGradGradGradGradGradGradGradGradGradGradGrad
 Berny optimization.
 Initialization pass.
                           ----------------------------
                           !    Initial Parameters    !
                           ! (Angstroms and Degrees)  !
 --------------------------                            --------------------------
 ! Name  Definition              Value          Derivative Info.                !
 --------------------------------------------------------------------------------
 ! R1    R(1,2)                  2.8119         Scan                            !
 ! R2    R(1,38)                 2.046          estimate D2E/DX2                !
 ! R3    R(1,39)                 0.9639         estimate D2E/DX2                !
 ! R4    R(2,38)                 1.9809         estimate D2E/DX2                !
 ! R5    R(3,5)                  1.466          estimate D2E/DX2                !
 ! R6    R(3,32)                 1.0969         estimate D2E/DX2                !
 ! R7    R(3,33)                 1.1063         estimate D2E/DX2                !
 ! R8    R(3,34)                 1.0975         estimate D2E/DX2                !
 ! R9    R(4,6)                  1.1033         estimate D2E/DX2                !
 ! R10   R(5,6)                  1.4715         estimate D2E/DX2                !
 ! R11   R(5,11)                 1.4618         estimate D2E/DX2                !
 ! R12   R(5,38)                 2.2409         estimate D2E/DX2                !
 ! R13   R(6,10)                 1.1053         estimate D2E/DX2                !
 ! R14   R(6,13)                 1.5034         estimate D2E/DX2                !
 ! R15   R(7,9)                  1.8231         estimate D2E/DX2                !
 ! R16   R(7,26)                 1.0999         estimate D2E/DX2                !
 ! R17   R(7,27)                 1.0996         estimate D2E/DX2                !
 ! R18   R(7,28)                 1.0983         estimate D2E/DX2                !
 ! R19   R(8,9)                  1.8304         estimate D2E/DX2                !
 ! R20   R(8,29)                 1.0994         estimate D2E/DX2                !
 ! R21   R(8,30)                 1.0998         estimate D2E/DX2                !
 ! R22   R(8,31)                 1.1005         estimate D2E/DX2                !
 ! R23   R(9,15)                 1.8785         estimate D2E/DX2                !
 ! R24   R(9,38)                 2.2366         estimate D2E/DX2                !
 ! R25   R(11,35)                1.0992         estimate D2E/DX2                !
 ! R26   R(11,36)                1.1072         estimate D2E/DX2                !
 ! R27   R(11,37)                1.0973         estimate D2E/DX2                !
 ! R28   R(12,25)                1.1614         estimate D2E/DX2                !
 ! R29   R(12,38)                1.8692         estimate D2E/DX2                !
 ! R30   R(13,14)                1.3484         estimate D2E/DX2                !
 ! R31   R(13,17)                1.3894         estimate D2E/DX2                !
 ! R32   R(14,16)                1.3499         estimate D2E/DX2                !
 ! R33   R(14,38)                2.0605         estimate D2E/DX2                !
 ! R34   R(15,16)                1.5012         estimate D2E/DX2                !
 ! R35   R(15,19)                1.1048         estimate D2E/DX2                !
 ! R36   R(15,20)                1.1009         estimate D2E/DX2                !
 ! R37   R(16,21)                1.3929         estimate D2E/DX2                !
 ! R38   R(17,18)                1.0906         estimate D2E/DX2                !
 ! R39   R(17,22)                1.3933         estimate D2E/DX2                !
 ! R40   R(21,22)                1.392          estimate D2E/DX2                !
 ! R41   R(21,23)                1.0905         estimate D2E/DX2                !
 ! R42   R(22,24)                1.0913         estimate D2E/DX2                !
 ! A1    A(38,1,39)            110.9024         estimate D2E/DX2                !
 ! A2    A(5,3,32)             108.0512         estimate D2E/DX2                !
 ! A3    A(5,3,33)             110.9            estimate D2E/DX2                !
 ! A4    A(5,3,34)             107.6157         estimate D2E/DX2                !
 ! A5    A(32,3,33)            111.1939         estimate D2E/DX2                !
 ! A6    A(32,3,34)            107.589          estimate D2E/DX2                !
 ! A7    A(33,3,34)            111.3269         estimate D2E/DX2                !
 ! A8    A(3,5,6)              110.6389         estimate D2E/DX2                !
 ! A9    A(3,5,11)             110.727          estimate D2E/DX2                !
 ! A10   A(3,5,38)             109.7079         estimate D2E/DX2                !
 ! A11   A(6,5,11)             110.6842         estimate D2E/DX2                !
 ! A12   A(6,5,38)             101.8994         estimate D2E/DX2                !
 ! A13   A(11,5,38)            112.8808         estimate D2E/DX2                !
 ! A14   A(4,6,5)              105.7374         estimate D2E/DX2                !
 ! A15   A(4,6,10)             109.1977         estimate D2E/DX2                !
 ! A16   A(4,6,13)             105.7993         estimate D2E/DX2                !
 ! A17   A(5,6,10)             111.675          estimate D2E/DX2                !
 ! A18   A(5,6,13)             112.7582         estimate D2E/DX2                !
 ! A19   A(10,6,13)            111.2923         estimate D2E/DX2                !
 ! A20   A(9,7,26)             111.9546         estimate D2E/DX2                !
 ! A21   A(9,7,27)             107.7302         estimate D2E/DX2                !
 ! A22   A(9,7,28)             107.3156         estimate D2E/DX2                !
 ! A23   A(26,7,27)            110.2368         estimate D2E/DX2                !
 ! A24   A(26,7,28)            112.326          estimate D2E/DX2                !
 ! A25   A(27,7,28)            107.0335         estimate D2E/DX2                !
 ! A26   A(9,8,29)             109.0961         estimate D2E/DX2                !
 ! A27   A(9,8,30)             108.0973         estimate D2E/DX2                !
 ! A28   A(9,8,31)             112.0056         estimate D2E/DX2                !
 ! A29   A(29,8,30)            108.3388         estimate D2E/DX2                !
 ! A30   A(29,8,31)            109.9418         estimate D2E/DX2                !
 ! A31   A(30,8,31)            109.2746         estimate D2E/DX2                !
 ! A32   A(7,9,8)              104.6599         estimate D2E/DX2                !
 ! A33   A(7,9,15)             105.562          estimate D2E/DX2                !
 ! A34   A(7,9,38)             116.6068         estimate D2E/DX2                !
 ! A35   A(8,9,15)             102.7018         estimate D2E/DX2                !
 ! A36   A(8,9,38)             125.2281         estimate D2E/DX2                !
 ! A37   A(15,9,38)             99.2919         estimate D2E/DX2                !
 ! A38   A(5,11,35)            109.8193         estimate D2E/DX2                !
 ! A39   A(5,11,36)            111.0167         estimate D2E/DX2                !
 ! A40   A(5,11,37)            109.0084         estimate D2E/DX2                !
 ! A41   A(35,11,36)           109.0389         estimate D2E/DX2                !
 ! A42   A(35,11,37)           108.6748         estimate D2E/DX2                !
 ! A43   A(36,11,37)           109.2444         estimate D2E/DX2                !
 ! A44   A(6,13,14)            114.8315         estimate D2E/DX2                !
 ! A45   A(6,13,17)            124.1128         estimate D2E/DX2                !
 ! A46   A(14,13,17)           120.7514         estimate D2E/DX2                !
 ! A47   A(13,14,16)           121.2114         estimate D2E/DX2                !
 ! A48   A(13,14,38)           115.8034         estimate D2E/DX2                !
 ! A49   A(16,14,38)           122.883          estimate D2E/DX2                !
 ! A50   A(9,15,16)            110.0166         estimate D2E/DX2                !
 ! A51   A(9,15,19)            104.8056         estimate D2E/DX2                !
 ! A52   A(9,15,20)            113.8672         estimate D2E/DX2                !
 ! A53   A(16,15,19)           108.9618         estimate D2E/DX2                !
 ! A54   A(16,15,20)           111.4628         estimate D2E/DX2                !
 ! A55   A(19,15,20)           107.3813         estimate D2E/DX2                !
 ! A56   A(14,16,15)           115.7737         estimate D2E/DX2                !
 ! A57   A(14,16,21)           120.2134         estimate D2E/DX2                !
 ! A58   A(15,16,21)           124.0129         estimate D2E/DX2                !
 ! A59   A(13,17,18)           119.8603         estimate D2E/DX2                !
 ! A60   A(13,17,22)           118.9311         estimate D2E/DX2                !
 ! A61   A(18,17,22)           121.1934         estimate D2E/DX2                !
 ! A62   A(16,21,22)           119.3075         estimate D2E/DX2                !
 ! A63   A(16,21,23)           119.7266         estimate D2E/DX2                !
 ! A64   A(22,21,23)           120.9649         estimate D2E/DX2                !
 ! A65   A(17,22,21)           119.4809         estimate D2E/DX2                !
 ! A66   A(17,22,24)           120.2963         estimate D2E/DX2                !
 ! A67   A(21,22,24)           120.2181         estimate D2E/DX2                !
 ! A68   A(1,38,2)              88.559          estimate D2E/DX2                !
 ! A69   A(1,38,5)              90.9518         estimate D2E/DX2                !
 ! A70   A(1,38,9)             105.8936         estimate D2E/DX2                !
 ! A71   A(1,38,12)             90.1875         estimate D2E/DX2                !
 ! A72   A(2,38,5)              82.8909         estimate D2E/DX2                !
 ! A73   A(2,38,9)              89.2885         estimate D2E/DX2                !
 ! A74   A(2,38,14)             84.8139         estimate D2E/DX2                !
 ! A75   A(5,38,9)             161.2712         estimate D2E/DX2                !
 ! A76   A(5,38,12)             97.6788         estimate D2E/DX2                !
 ! A77   A(5,38,14)             79.4822         estimate D2E/DX2                !
 ! A78   A(9,38,12)             90.5294         estimate D2E/DX2                !
 ! A79   A(9,38,14)             82.892          estimate D2E/DX2                !
 ! A80   A(12,38,14)            96.5086         estimate D2E/DX2                !
 ! A81   L(25,12,38,8,-1)      176.9648         estimate D2E/DX2                !
 ! A82   L(1,38,14,2,-1)       173.3729         estimate D2E/DX2                !
 ! A83   L(2,38,12,1,-1)       178.7466         estimate D2E/DX2                !
 ! A84   L(25,12,38,8,-2)      180.9306         estimate D2E/DX2                !
 ! A85   L(1,38,14,2,-2)       188.8458         estimate D2E/DX2                !
 ! A86   L(2,38,12,1,-2)       180.5466         estimate D2E/DX2                !
 ! D1    D(39,1,38,2)         -138.4656         estimate D2E/DX2                !
 ! D2    D(39,1,38,5)          138.6709         estimate D2E/DX2                !
 ! D3    D(39,1,38,9)          -49.616          estimate D2E/DX2                !
 ! D4    D(39,1,38,12)          40.9878         estimate D2E/DX2                !
 ! D5    D(32,3,5,6)          -174.9464         estimate D2E/DX2                !
 ! D6    D(32,3,5,11)           61.9546         estimate D2E/DX2                !
 ! D7    D(32,3,5,38)          -63.2948         estimate D2E/DX2                !
 ! D8    D(33,3,5,6)            62.9485         estimate D2E/DX2                !
 ! D9    D(33,3,5,11)          -60.1505         estimate D2E/DX2                !
 ! D10   D(33,3,5,38)          174.6001         estimate D2E/DX2                !
 ! D11   D(34,3,5,6)           -59.0371         estimate D2E/DX2                !
 ! D12   D(34,3,5,11)          177.864          estimate D2E/DX2                !
 ! D13   D(34,3,5,38)           52.6145         estimate D2E/DX2                !
 ! D14   D(3,5,6,4)             42.6619         estimate D2E/DX2                !
 ! D15   D(3,5,6,10)           -75.9989         estimate D2E/DX2                !
 ! D16   D(3,5,6,13)           157.8105         estimate D2E/DX2                !
 ! D17   D(11,5,6,4)           165.7857         estimate D2E/DX2                !
 ! D18   D(11,5,6,10)           47.1249         estimate D2E/DX2                !
 ! D19   D(11,5,6,13)          -79.0658         estimate D2E/DX2                !
 ! D20   D(38,5,6,4)           -73.93           estimate D2E/DX2                !
 ! D21   D(38,5,6,10)          167.4091         estimate D2E/DX2                !
 ! D22   D(38,5,6,13)           41.2185         estimate D2E/DX2                !
 ! D23   D(3,5,11,35)          179.5551         estimate D2E/DX2                !
 ! D24   D(3,5,11,36)           58.8962         estimate D2E/DX2                !
 ! D25   D(3,5,11,37)          -61.4886         estimate D2E/DX2                !
 ! D26   D(6,5,11,35)           56.4824         estimate D2E/DX2                !
 ! D27   D(6,5,11,36)          -64.1766         estimate D2E/DX2                !
 ! D28   D(6,5,11,37)          175.4387         estimate D2E/DX2                !
 ! D29   D(38,5,11,35)         -57.0058         estimate D2E/DX2                !
 ! D30   D(38,5,11,36)        -177.6647         estimate D2E/DX2                !
 ! D31   D(38,5,11,37)          61.9506         estimate D2E/DX2                !
 ! D32   D(3,5,38,1)            28.0795         estimate D2E/DX2                !
 ! D33   D(3,5,38,2)           -60.3494         estimate D2E/DX2                !
 ! D34   D(3,5,38,9)          -126.3437         estimate D2E/DX2                !
 ! D35   D(3,5,38,12)          118.3971         estimate D2E/DX2                !
 ! D36   D(3,5,38,14)         -146.3645         estimate D2E/DX2                !
 ! D37   D(6,5,38,1)           145.3448         estimate D2E/DX2                !
 ! D38   D(6,5,38,2)            56.916          estimate D2E/DX2                !
 ! D39   D(6,5,38,9)            -9.0784         estimate D2E/DX2                !
 ! D40   D(6,5,38,12)         -124.3376         estimate D2E/DX2                !
 ! D41   D(6,5,38,14)          -29.0992         estimate D2E/DX2                !
 ! D42   D(11,5,38,1)          -95.922          estimate D2E/DX2                !
 ! D43   D(11,5,38,2)          175.6492         estimate D2E/DX2                !
 ! D44   D(11,5,38,9)          109.6548         estimate D2E/DX2                !
 ! D45   D(11,5,38,12)          -5.6044         estimate D2E/DX2                !
 ! D46   D(11,5,38,14)          89.634          estimate D2E/DX2                !
 ! D47   D(4,6,13,14)           80.1195         estimate D2E/DX2                !
 ! D48   D(4,6,13,17)          -93.5672         estimate D2E/DX2                !
 ! D49   D(5,6,13,14)          -34.9918         estimate D2E/DX2                !
 ! D50   D(5,6,13,17)          151.3215         estimate D2E/DX2                !
 ! D51   D(10,6,13,14)        -161.3875         estimate D2E/DX2                !
 ! D52   D(10,6,13,17)          24.9258         estimate D2E/DX2                !
 ! D53   D(26,7,9,8)            56.0152         estimate D2E/DX2                !
 ! D54   D(26,7,9,15)          -51.9704         estimate D2E/DX2                !
 ! D55   D(26,7,9,38)         -161.0547         estimate D2E/DX2                !
 ! D56   D(27,7,9,8)           -65.3457         estimate D2E/DX2                !
 ! D57   D(27,7,9,15)         -173.3312         estimate D2E/DX2                !
 ! D58   D(27,7,9,38)           77.5845         estimate D2E/DX2                !
 ! D59   D(28,7,9,8)           179.7049         estimate D2E/DX2                !
 ! D60   D(28,7,9,15)           71.7194         estimate D2E/DX2                !
 ! D61   D(28,7,9,38)          -37.3649         estimate D2E/DX2                !
 ! D62   D(29,8,9,7)          -176.061          estimate D2E/DX2                !
 ! D63   D(29,8,9,15)          -65.9874         estimate D2E/DX2                !
 ! D64   D(29,8,9,38)           45.2225         estimate D2E/DX2                !
 ! D65   D(30,8,9,7)            66.3306         estimate D2E/DX2                !
 ! D66   D(30,8,9,15)          176.4043         estimate D2E/DX2                !
 ! D67   D(30,8,9,38)          -72.3859         estimate D2E/DX2                !
 ! D68   D(31,8,9,7)           -54.1094         estimate D2E/DX2                !
 ! D69   D(31,8,9,15)           55.9642         estimate D2E/DX2                !
 ! D70   D(31,8,9,38)          167.1741         estimate D2E/DX2                !
 ! D71   D(7,9,15,16)          -90.4237         estimate D2E/DX2                !
 ! D72   D(7,9,15,19)          152.5761         estimate D2E/DX2                !
 ! D73   D(7,9,15,20)           35.5221         estimate D2E/DX2                !
 ! D74   D(8,9,15,16)          160.1817         estimate D2E/DX2                !
 ! D75   D(8,9,15,19)           43.1815         estimate D2E/DX2                !
 ! D76   D(8,9,15,20)          -73.8725         estimate D2E/DX2                !
 ! D77   D(38,9,15,16)          30.6844         estimate D2E/DX2                !
 ! D78   D(38,9,15,19)         -86.3159         estimate D2E/DX2                !
 ! D79   D(38,9,15,20)         156.6302         estimate D2E/DX2                !
 ! D80   D(7,9,38,1)           -83.0249         estimate D2E/DX2                !
 ! D81   D(7,9,38,2)             5.274          estimate D2E/DX2                !
 ! D82   D(7,9,38,5)            70.3072         estimate D2E/DX2                !
 ! D83   D(7,9,38,12)         -173.3707         estimate D2E/DX2                !
 ! D84   D(7,9,38,14)           90.1363         estimate D2E/DX2                !
 ! D85   D(8,9,38,1)            51.4213         estimate D2E/DX2                !
 ! D86   D(8,9,38,2)           139.7203         estimate D2E/DX2                !
 ! D87   D(8,9,38,5)          -155.2466         estimate D2E/DX2                !
 ! D88   D(8,9,38,12)          -38.9244         estimate D2E/DX2                !
 ! D89   D(8,9,38,14)         -135.4175         estimate D2E/DX2                !
 ! D90   D(15,9,38,1)          164.2692         estimate D2E/DX2                !
 ! D91   D(15,9,38,2)         -107.4319         estimate D2E/DX2                !
 ! D92   D(15,9,38,5)          -42.3987         estimate D2E/DX2                !
 ! D93   D(15,9,38,12)          73.9234         estimate D2E/DX2                !
 ! D94   D(15,9,38,14)         -22.5696         estimate D2E/DX2                !
 ! D95   D(6,13,14,16)        -170.0918         estimate D2E/DX2                !
 ! D96   D(6,13,14,38)           6.3354         estimate D2E/DX2                !
 ! D97   D(17,13,14,16)          3.8269         estimate D2E/DX2                !
 ! D98   D(17,13,14,38)       -179.7459         estimate D2E/DX2                !
 ! D99   D(6,13,17,18)          -7.8853         estimate D2E/DX2                !
 ! D100  D(6,13,17,22)         170.7134         estimate D2E/DX2                !
 ! D101  D(14,13,17,18)        178.7833         estimate D2E/DX2                !
 ! D102  D(14,13,17,22)         -2.618          estimate D2E/DX2                !
 ! D103  D(13,14,16,15)        177.7939         estimate D2E/DX2                !
 ! D104  D(13,14,16,21)         -2.1372         estimate D2E/DX2                !
 ! D105  D(38,14,16,15)          1.6245         estimate D2E/DX2                !
 ! D106  D(38,14,16,21)       -178.3066         estimate D2E/DX2                !
 ! D107  D(13,14,38,2)         -70.2116         estimate D2E/DX2                !
 ! D108  D(13,14,38,5)          13.4996         estimate D2E/DX2                !
 ! D109  D(13,14,38,9)        -160.1401         estimate D2E/DX2                !
 ! D110  D(13,14,38,12)        110.138          estimate D2E/DX2                !
 ! D111  D(16,14,38,2)         106.1497         estimate D2E/DX2                !
 ! D112  D(16,14,38,5)        -170.1392         estimate D2E/DX2                !
 ! D113  D(16,14,38,9)          16.2211         estimate D2E/DX2                !
 ! D114  D(16,14,38,12)        -73.5007         estimate D2E/DX2                !
 ! D115  D(9,15,16,14)         -23.1882         estimate D2E/DX2                !
 ! D116  D(9,15,16,21)         156.74           estimate D2E/DX2                !
 ! D117  D(19,15,16,14)         91.189          estimate D2E/DX2                !
 ! D118  D(19,15,16,21)        -88.8829         estimate D2E/DX2                !
 ! D119  D(20,15,16,14)       -150.485          estimate D2E/DX2                !
 ! D120  D(20,15,16,21)         29.4431         estimate D2E/DX2                !
 ! D121  D(14,16,21,22)         -0.6955         estimate D2E/DX2                !
 ! D122  D(14,16,21,23)        179.6694         estimate D2E/DX2                !
 ! D123  D(15,16,21,22)        179.3794         estimate D2E/DX2                !
 ! D124  D(15,16,21,23)         -0.2557         estimate D2E/DX2                !
 ! D125  D(13,17,22,21)         -0.1904         estimate D2E/DX2                !
 ! D126  D(13,17,22,24)       -179.4028         estimate D2E/DX2                !
 ! D127  D(18,17,22,21)        178.389          estimate D2E/DX2                !
 ! D128  D(18,17,22,24)         -0.8234         estimate D2E/DX2                !
 ! D129  D(16,21,22,17)          1.8072         estimate D2E/DX2                !
 ! D130  D(16,21,22,24)       -178.9798         estimate D2E/DX2                !
 ! D131  D(23,21,22,17)       -178.5624         estimate D2E/DX2                !
 ! D132  D(23,21,22,24)          0.6507         estimate D2E/DX2                !
 --------------------------------------------------------------------------------
 Trust Radius=3.00D-01 FncErr=1.00D-07 GrdErr=1.00D-06 EigMax=2.50D+02 EigMin=1.00D-04
 Number of optimizations in scan=   6
 Number of steps in this run=    234 maximum allowed number of steps=    234.
 GradGradGradGradGradGradGradGradGradGradGradGradGradGradGradGradGradGrad

                          Input orientation:                          
 ---------------------------------------------------------------------
 Center     Atomic      Atomic             Coordinates (Angstroms)
 Number     Number       Type             X           Y           Z
 ---------------------------------------------------------------------
      1          8           0       -0.579665   -2.758553   -0.451216
      2          8           0        0.124817   -0.526838   -2.009963
      3          6           0        2.315029   -2.350668   -0.931965
      4          1           0        2.330468   -0.012300   -1.726806
      5          7           0        2.026456   -1.202582   -0.067197
      6          6           0        2.568047    0.035146   -0.650399
      7          6           0       -2.647484    0.750548   -1.940305
      8          6           0       -3.681160   -0.193709    0.590163
      9         15           0       -2.129681    0.283523   -0.255813
     10          1           0        3.663986    0.101158   -0.522641
     11          6           0        2.562735   -1.418478    1.275450
     12          6           0       -0.485350   -1.072530    1.751847
     13          6           0        1.882908    1.269663   -0.134038
     14          7           0        0.565473    1.124330    0.114069
     15          6           0       -1.673412    1.894457    0.596014
     16          6           0       -0.216087    2.189821    0.390001
     17          6           0        2.491296    2.514824   -0.035158
     18          1           0        3.561765    2.612333   -0.219648
     19          1           0       -1.853385    1.706862    1.669784
     20          1           0       -2.303008    2.748068    0.301255
     21          6           0        0.338986    3.465038    0.467231
     22          6           0        1.707794    3.625354    0.271498
     23          1           0       -0.300650    4.320902    0.685297
     24          1           0        2.160900    4.615391    0.345089
     25          8           0       -0.740308   -1.252417    2.870559
     26          1           0       -3.413339    1.539941   -1.931085
     27          1           0       -3.037288   -0.151818   -2.433075
     28          1           0       -1.744512    1.051686   -2.488167
     29          1           0       -3.460969   -0.423773    1.642406
     30          1           0       -4.065761   -1.105259    0.109801
     31          1           0       -4.443576    0.597669    0.530577
     32          1           0        1.817167   -3.230497   -0.506236
     33          1           0        3.405668   -2.512719   -1.021916
     34          1           0        1.858904   -2.152494   -1.910346
     35          1           0        2.345206   -0.546499    1.908303
     36          1           0        3.657878   -1.578197    1.244660
     37          1           0        2.080768   -2.300795    1.715218
     38         44           0       -0.176056   -0.789351   -0.069674
     39          1           0       -1.331089   -3.062908    0.070247
 ---------------------------------------------------------------------
                    Distance matrix (angstroms):
                    1          2          3          4          5
     1  O    0.000000
     2  O    2.811858   0.000000
     3  C    2.962557   3.047206   0.000000
     4  H    4.199752   2.282504   2.469813   0.000000
     5  N    3.059474   2.801285   1.466014   2.064824   0.000000
     6  C    4.213374   2.851949   2.415659   1.103335   1.471536
     7  C    4.336710   3.053232   5.938083   5.040588   5.400830
     8  C    4.157182   4.621374   6.551612   6.445225   5.833252
     9  P    3.419789   2.969257   5.210718   4.705769   4.417868
    10  H    5.117775   3.890015   2.828193   1.800320   2.142118
    11  C    3.827774   4.187172   2.408946   3.323376   1.461817
    12  C    2.775798   3.849844   4.083945   4.599342   3.104030
    13  C    4.731954   3.136462   3.732320   2.093000   2.477311
    14  N    4.087502   2.726178   4.028740   2.792124   2.753516
    15  C    4.893206   3.985901   6.021915   5.006223   4.870372
    16  C    5.032519   3.640918   5.363784   3.976827   4.092240
    17  C    6.116569   4.330333   4.950590   3.045307   3.746493
    18  H    6.786124   4.987206   5.166539   3.267463   4.115093
    19  H    5.104991   4.737430   6.372466   5.656587   5.151227
    20  H    5.818848   4.686264   6.988863   5.762097   5.872619
    21  C    6.357716   4.702918   6.299598   4.568554   4.991979
    22  C    6.819754   4.995155   6.126164   4.196840   4.850281
    23  H    7.175527   5.562915   7.346234   5.614059   6.040741
    24  H    7.906949   6.011191   7.083826   5.073167   5.834112
    25  O    3.650813   5.009431   5.000043   5.665979   4.035824
    26  H    5.356936   4.098334   6.996376   5.953361   6.370783
    27  H    4.094232   3.212253   5.977923   5.415818   5.687089
    28  H    4.474814   2.492952   5.520656   4.279860   5.016276
    29  H    4.258680   5.119403   6.610784   6.712797   5.800096
    30  H    3.898844   4.731693   6.584133   6.743844   6.095565
    31  H    5.211329   5.346876   7.517344   7.166277   6.742370
    32  H    2.443473   3.526332   1.096910   3.479951   2.085424
    33  H    4.033487   3.960296   1.106276   2.811587   2.128420
    34  H    2.905682   2.379020   1.097521   2.199202   2.080289
    35  H    4.360664   4.503702   3.364976   3.674181   2.105861
    36  H    4.714447   4.917362   2.671639   3.611601   2.126874
    37  H    3.461341   4.566141   2.657997   4.140905   2.094284
    38  Ru   2.046028   1.980950   3.063782   3.103637   2.240943
    39  H    0.963946   3.588675   3.847843   5.093389   3.840939
                    6          7          8          9         10
     6  C    0.000000
     7  C    5.420095   0.000000
     8  C    6.375261   2.891950   0.000000
     9  P    4.720809   1.823115   1.830441   0.000000
    10  H    1.105333   6.501241   7.434813   5.802674   0.000000
    11  C    2.412871   6.495548   6.399680   5.221143   2.599072
    12  C    4.039921   4.650851   3.512126   2.928037   4.875226
    13  C    1.503355   4.904746   5.798687   4.133784   2.165330
    14  N    2.404378   3.831874   4.471888   2.847389   3.324615
    15  C    4.795889   2.947924   2.896812   1.878536   5.740655
    16  C    3.671029   3.662448   4.210465   2.777209   4.500044
    17  C    2.556015   5.757544   6.769519   5.136226   2.727384
    18  H    2.795516   6.706838   7.809585   6.149570   2.531453
    19  H    5.265638   3.818098   2.849300   2.410427   6.150317
    20  H    5.656215   3.022141   3.261414   2.532656   6.579510
    21  C    4.240515   4.699329   5.437198   4.091351   4.832304
    22  C    3.805196   5.667894   6.612685   5.115867   4.108199
    23  H    5.327402   5.014862   5.640798   4.531166   5.914702
    24  H    4.704828   6.578799   7.570810   6.126602   4.836375
    25  O    5.000018   5.549198   3.869066   3.750156   5.722218
    26  H    6.299329   1.099890   3.071475   2.456196   7.358147
    27  H    5.884952   1.099561   3.091325   2.398696   6.972863
    28  H    4.796761   1.098269   3.844181   2.392035   5.832551
    29  H    6.466575   3.857020   1.099376   2.424011   7.465116
    30  H    6.773909   3.107807   1.099813   2.410559   7.848848
    31  H    7.132601   3.058525   1.100504   2.463982   8.190748
    32  H    3.353958   6.151291   6.376187   5.290430   3.809322
    33  H    2.707628   6.937796   7.628875   6.248678   2.673640
    34  H    2.622236   5.360605   6.386054   4.957869   3.203590
    35  H    2.633425   6.435921   6.178919   5.039539   2.840445
    36  H    2.716957   7.438054   7.497109   6.262049   2.437955
    37  H    3.360090   6.710433   6.237417   5.318979   3.644718
    38  Ru   2.923549   3.460998   3.616065   2.236595   3.967884
    39  H    5.031951   4.507512   3.745056   3.455816   5.942525
                   11         12         13         14         15
    11  C    0.000000
    12  C    3.104426   0.000000
    13  C    3.110454   3.827672   0.000000
    14  N    3.435657   2.934747   1.348448   0.000000
    15  C    5.420527   3.398595   3.683850   2.416189   0.000000
    16  C    4.639579   3.545428   2.350976   1.349906   1.501159
    17  C    4.146524   4.992285   1.389366   2.380029   4.257702
    18  H    4.413708   5.817572   2.151430   3.362035   5.346749
    19  H    5.424515   3.098915   4.171906   2.934360   1.104792
    20  H    6.479554   4.472702   4.460611   3.301476   1.100875
    21  C    5.426509   4.787410   2.750435   2.378010   2.555985
    22  C    5.213356   5.391792   2.396748   2.754051   3.812331
    23  H    6.441097   5.500977   3.840481   3.360735   2.789280
    24  H    6.118383   6.429156   3.391274   3.845291   4.708332
    25  O    3.671790   1.161413   4.719084   3.866811   3.993376
    26  H    7.399160   5.381645   5.599344   4.492920   3.088568
    27  H    6.835045   4.987350   5.613778   4.593079   3.901637
    28  H    6.230482   4.906678   4.329851   3.480365   3.198044
    29  H    6.116298   3.047486   5.880519   4.576535   3.108776
    30  H    6.737493   3.939128   6.409865   5.139982   3.867561
    31  H    7.328580   4.466387   6.396694   5.053852   3.059371
    32  H    2.648338   3.880379   4.516004   4.573405   6.297955
    33  H    2.680632   4.990784   4.172953   4.752399   6.916498
    34  H    3.344167   4.480346   3.855776   4.063102   5.927639
    35  H    1.099168   2.883269   2.771881   3.029587   4.881563
    36  H    1.107157   4.204673   3.627897   4.259679   6.395523
    37  H    1.097348   2.845161   4.025801   4.073240   5.739915
    38  Ru   3.115467   1.869168   2.912562   2.060535   3.144525
    39  H    4.395285   2.739463   5.398396   4.596937   4.996907
                   16         17         18         19         20
    16  C    0.000000
    17  C    2.759766   0.000000
    18  H    3.849980   1.090618   0.000000
    19  H    2.133504   4.736653   5.806348   0.000000
    20  H    2.162118   4.811749   5.889425   1.777397   0.000000
    21  C    1.392928   2.405772   3.403705   3.056764   2.742577
    22  C    2.403354   1.393266   2.169019   4.279931   4.105733
    23  H    2.153104   3.402343   4.319303   3.195842   2.575021
    24  H    3.396391   2.160123   2.508703   5.131164   4.838935
    25  O    4.275158   5.751396   6.556943   3.382031   5.004721
    26  H    4.004024   6.277711   7.261619   3.927795   2.770514
    27  H    4.627333   6.589858   7.489144   4.657227   4.052784
    28  H    3.451853   5.108826   5.978158   4.210661   3.312175
    29  H    4.350708   6.846827   7.874260   2.669210   3.633199
    30  H    5.075043   7.491396   8.491653   3.903355   4.241707
    31  H    4.519555   7.217201   8.288980   3.039275   3.042833
    32  H    5.858089   5.803885   6.104459   6.525759   7.305554
    33  H    6.101189   5.204416   5.189813   7.260010   7.875001
    34  H    5.334125   5.069527   5.334958   6.441510   6.799132
    35  H    4.043873   3.629060   3.998301   4.771027   5.919685
    36  H    5.471381   4.444285   4.440043   6.430114   7.425547
    37  H    5.215110   5.140285   5.484149   5.616132   6.834310
    38  Ru   3.014693   4.246591   5.056209   3.474223   4.144255
    39  H    5.379278   6.762605   7.498827   5.057867   5.896221
                   21         22         23         24         25
    21  C    0.000000
    22  C    1.391993   0.000000
    23  H    1.090500   2.165378   0.000000
    24  H    2.158147   1.091281   2.502338   0.000000
    25  O    5.403262   6.044912   6.002545   7.016137   0.000000
    26  H    4.851584   5.952001   4.926259   6.761028   6.164263
    27  H    5.735211   6.640598   6.100709   7.580609   5.883533
    28  H    4.347369   5.114483   4.779475   5.998298   5.918890
    29  H    5.562693   6.707528   5.780624   7.660393   3.097904
    30  H    6.357450   7.465841   6.629515   8.458871   4.324590
    31  H    5.576623   6.861002   5.572274   7.732762   4.755263
    32  H    6.925522   6.900690   7.932750   7.899422   4.675064
    33  H    6.881546   6.498587   7.959255   7.363973   5.824847
    34  H    6.286469   6.177929   7.301088   7.140200   5.515713
    35  H    4.711055   4.526564   5.673438   5.396547   3.308271
    36  H    6.087172   5.641526   7.126163   6.435115   4.700396
    37  H    6.151106   6.110865   7.111875   7.051050   3.223721
    38  Ru   4.318955   4.811955   5.167223   5.902934   3.029485
    39  H    6.749876   7.349024   7.480691   8.439538   3.386539
                   26         27         28         29         30
    26  H    0.000000
    27  H    1.804288   0.000000
    28  H    1.825846   1.767123   0.000000
    29  H    4.077778   4.106459   4.710077   0.000000
    30  H    3.404108   2.903967   4.097565   1.782995   0.000000
    31  H    2.830025   3.364909   4.074787   1.801395   1.794369
    32  H    7.221181   6.062730   5.911911   6.352407   6.285299
    33  H    7.984328   7.005491   6.432669   7.655913   7.686611
    34  H    6.436695   5.314945   4.856465   6.626580   6.346601
    35  H    7.228760   6.926368   6.213610   5.813556   6.681866
    36  H    8.355253   7.770813   7.073620   7.222803   7.820881
    37  H    7.630988   6.929713   6.598511   5.851441   6.464247
    38  Ru   4.401187   3.765469   3.420319   3.722300   3.906637
    39  H    5.433903   4.201449   4.862744   3.738061   3.363389
                   31         32         33         34         35
    31  H    0.000000
    32  H    7.411258   0.000000
    33  H    8.584602   1.817820   0.000000
    34  H    7.296763   1.770694   1.819767   0.000000
    35  H    7.021027   3.648654   3.684669   4.171066   0.000000
    36  H    8.418900   3.030504   2.464611   3.676981   1.796644
    37  H    7.236818   2.422538   3.048307   3.635373   1.784591
    38  Ru   4.527235   3.181621   4.087237   3.063869   3.213742
    39  H    4.826935   3.204986   4.892075   3.863633   4.819327
                   36         37         38         39
    36  H    0.000000
    37  H    1.797456   0.000000
    38  Ru   4.129020   3.250163   0.000000
    39  H    5.336048   3.863614   2.553965   0.000000
 Symmetry turned off by external request.
 Stoichiometry    C12H20N2O3PRu(2)
 Framework group  C1[X(C12H20N2O3PRu)]
 Deg. of freedom   111
 Full point group                 C1      NOp   1
 Rotational constants (GHZ):           0.3791227           0.3562906           0.2517951
 General basis read from cards:  (5D, 7F)
 ======================================================================================================
                                       Pseudopotential Parameters
 ======================================================================================================
  Center     Atomic      Valence      Angular      Power
  Number     Number     Electrons     Momentum     of R      Exponent        Coefficient   SO-Coeffient
 ======================================================================================================
    1          8
                                   No pseudopotential on this center.
    2          8
                                   No pseudopotential on this center.
    3          6
                                   No pseudopotential on this center.
    4          1
                                   No pseudopotential on this center.
    5          7
                                   No pseudopotential on this center.
    6          6
                                   No pseudopotential on this center.
    7          6
                                   No pseudopotential on this center.
    8          6
                                   No pseudopotential on this center.
    9         15
                                   No pseudopotential on this center.
   10          1
                                   No pseudopotential on this center.
   11          6
                                   No pseudopotential on this center.
   12          6
                                   No pseudopotential on this center.
   13          6
                                   No pseudopotential on this center.
   14          7
                                   No pseudopotential on this center.
   15          6
                                   No pseudopotential on this center.
   16          6
                                   No pseudopotential on this center.
   17          6
                                   No pseudopotential on this center.
   18          1
                                   No pseudopotential on this center.
   19          1
                                   No pseudopotential on this center.
   20          1
                                   No pseudopotential on this center.
   21          6
                                   No pseudopotential on this center.
   22          6
                                   No pseudopotential on this center.
   23          1
                                   No pseudopotential on this center.
   24          1
                                   No pseudopotential on this center.
   25          8
                                   No pseudopotential on this center.
   26          1
                                   No pseudopotential on this center.
   27          1
                                   No pseudopotential on this center.
   28          1
                                   No pseudopotential on this center.
   29          1
                                   No pseudopotential on this center.
   30          1
                                   No pseudopotential on this center.
   31          1
                                   No pseudopotential on this center.
   32          1
                                   No pseudopotential on this center.
   33          1
                                   No pseudopotential on this center.
   34          1
                                   No pseudopotential on this center.
   35          1
                                   No pseudopotential on this center.
   36          1
                                   No pseudopotential on this center.
   37          1
                                   No pseudopotential on this center.
   38         44           16
                                      G and up 
                                                     2        1.0000000        0.00000000    0.00000000
                                      S - G
                                                     2       11.1052690      209.82297100    0.00000000
                                                     2        5.4147450       30.65472600    0.00000000
                                      P - G
                                                     2        9.7712710      146.33618200    0.00000000
                                                     2        5.0739910       24.12787700    0.00000000
                                      D - G
                                                     2        7.6714230       67.51589700    0.00000000
                                                     2        4.1365650        9.87010400    0.00000000
                                      F - G
                                                     2       11.3600000      -28.34061600    0.00000000
                                                     2        5.6800000       -4.94462900    0.00000000
   39          1
                                   No pseudopotential on this center.
 ======================================================================================================
   392 basis functions,   837 primitive gaussians,   413 cartesian basis functions
    81 alpha electrons       80 beta electrons
       nuclear repulsion energy      1993.1664975712 Hartrees.
 NAtoms=   39 NActive=   39 NUniq=   39 SFac= 1.00D+00 NAtFMM=   60 NAOKFM=F Big=F
 Integral buffers will be    131072 words long.
 Raffenetti 2 integral format.
 Two-electron integral symmetry is turned off.
 Nuclear repulsion after empirical dispersion term =     1993.1111712204 Hartrees.
 One-electron integrals computed using PRISM.
   1 Symmetry operations used in ECPInt.
 ECPInt:  NShTT=   17020 NPrTT=  126709 LenC2=   16494 LenP2D=   70080.
 LDataN:  DoStor=T MaxTD1= 6 Len=  172
 NBasis=   392 RedAO= T EigKep=  4.51D-04  NBF=   392
 NBsUse=   392 1.00D-06 EigRej= -1.00D+00 NBFU=   392
 Defaulting to unpruned grid for atomic number  44.
 ExpMin= 1.60D-02 ExpMax= 9.48D+04 ExpMxC= 3.24D+03 IAcc=3 IRadAn=         5 AccDes= 0.00D+00
 Harris functional with IExCor= 1009 and IRadAn=       5 diagonalized for initial guess.
 HarFok:  IExCor= 1009 AccDes= 0.00D+00 IRadAn=         5 IDoV= 1 UseB2=F ITyADJ=14
 ICtDFT=  3500011 ScaDFX=  1.000000  1.000000  1.000000  1.000000
 Defaulting to unpruned grid for atomic number  44.
 FoFCou: FMM=F IPFlag=           0 FMFlag=      100000 FMFlg1=           0
         NFxFlg=           0 DoJE=T BraDBF=F KetDBF=T FulRan=T
         wScrn=  0.000000 ICntrl=       500 IOpCl=  0 I1Cent=   200000004 NGrid=           0
         NMat0=    1 NMatS0=      1 NMatT0=    0 NMatD0=    1 NMtDS0=    0 NMtDT0=    0
 Symmetry not used in FoFCou.
 Initial guess <Sx>= 0.0000 <Sy>= 0.0000 <Sz>= 0.5000 <S**2>= 0.7500 S= 0.5000
 Requested convergence on RMS density matrix=1.00D-08 within 128 cycles.
 Requested convergence on MAX density matrix=1.00D-06.
 Requested convergence on             energy=1.00D-06.
 No special actions if energy rises.
 Defaulting to unpruned grid for atomic number  44.
 Defaulting to unpruned grid for atomic number  44.
 Defaulting to unpruned grid for atomic number  44.
 Defaulting to unpruned grid for atomic number  44.
 Defaulting to unpruned grid for atomic number  44.
 Defaulting to unpruned grid for atomic number  44.
 Defaulting to unpruned grid for atomic number  44.
 Defaulting to unpruned grid for atomic number  44.
 Defaulting to unpruned grid for atomic number  44.
 Defaulting to unpruned grid for atomic number  44.
 Defaulting to unpruned grid for atomic number  44.
 Defaulting to unpruned grid for atomic number  44.
 Defaulting to unpruned grid for atomic number  44.
 Defaulting to unpruned grid for atomic number  44.
 Defaulting to unpruned grid for atomic number  44.
 Defaulting to unpruned grid for atomic number  44.
 Defaulting to unpruned grid for atomic number  44.
 Defaulting to unpruned grid for atomic number  44.
 Defaulting to unpruned grid for atomic number  44.
 Defaulting to unpruned grid for atomic number  44.
 EnCoef did    20 forward-backward iterations
 EnCoef did   100 forward-backward iterations
 EnCoef did     3 forward-backward iterations
 Restarting incremental Fock formation.
 SCF Done:  E(UPBE1PBE) =  -1239.83790295     A.U. after   36 cycles
            NFock= 36  Conv=0.71D-08     -V/T= 2.0571
 <Sx>= 0.0000 <Sy>= 0.0000 <Sz>= 0.5000 <S**2>= 0.7578 S= 0.5039
 <L.S>= 0.000000000000E+00
 Annihilation of the first spin contaminant:
 S**2 before annihilation     0.7578,   after     0.7500

 **********************************************************************

            Population analysis using the SCF density.

 **********************************************************************

 Alpha  occ. eigenvalues --  -77.26430 -19.25888 -19.16028 -19.11903 -14.45516
 Alpha  occ. eigenvalues --  -14.43757 -10.31066 -10.30963 -10.30445 -10.27735
 Alpha  occ. eigenvalues --  -10.27707 -10.26871 -10.26807 -10.26543 -10.25994
 Alpha  occ. eigenvalues --  -10.24770 -10.23450 -10.23364  -6.64451  -4.78106
 Alpha  occ. eigenvalues --   -4.78034  -4.77736  -3.03739  -1.87575  -1.86561
 Alpha  occ. eigenvalues --   -1.86166  -1.12357  -1.01994  -0.97471  -0.88937
 Alpha  occ. eigenvalues --   -0.87385  -0.85679  -0.85313  -0.79848  -0.75873
 Alpha  occ. eigenvalues --   -0.73547  -0.72836  -0.72121  -0.66908  -0.65733
 Alpha  occ. eigenvalues --   -0.61781  -0.57822  -0.55864  -0.55153  -0.53173
 Alpha  occ. eigenvalues --   -0.51075  -0.49954  -0.49421  -0.48022  -0.47348
 Alpha  occ. eigenvalues --   -0.46385  -0.45439  -0.44811  -0.44517  -0.44129
 Alpha  occ. eigenvalues --   -0.43560  -0.43333  -0.43253  -0.42288  -0.41391
 Alpha  occ. eigenvalues --   -0.40906  -0.40247  -0.38937  -0.38530  -0.38240
 Alpha  occ. eigenvalues --   -0.36783  -0.36521  -0.36012  -0.35716  -0.34121
 Alpha  occ. eigenvalues --   -0.33313  -0.30805  -0.28878  -0.28590  -0.28049
 Alpha  occ. eigenvalues --   -0.26945  -0.25570  -0.24787  -0.20658  -0.19576
 Alpha  occ. eigenvalues --   -0.17454
 Alpha virt. eigenvalues --   -0.05146  -0.03445   0.00209   0.01651   0.01951
 Alpha virt. eigenvalues --    0.02620   0.03411   0.04030   0.04889   0.06380
 Alpha virt. eigenvalues --    0.07567   0.07855   0.08353   0.09328   0.09504
 Alpha virt. eigenvalues --    0.10615   0.10770   0.11396   0.12203   0.13089
 Alpha virt. eigenvalues --    0.13307   0.13694   0.14027   0.14682   0.14933
 Alpha virt. eigenvalues --    0.15287   0.15432   0.16344   0.16915   0.17363
 Alpha virt. eigenvalues --    0.17720   0.18526   0.19753   0.20592   0.21131
 Alpha virt. eigenvalues --    0.21697   0.21732   0.22425   0.23070   0.23283
 Alpha virt. eigenvalues --    0.24293   0.25102   0.25765   0.27679   0.28347
 Alpha virt. eigenvalues --    0.29425   0.29834   0.30089   0.32007   0.33111
 Alpha virt. eigenvalues --    0.35015   0.35834   0.37409   0.38132   0.39973
 Alpha virt. eigenvalues --    0.41333   0.42219   0.43503   0.44352   0.45839
 Alpha virt. eigenvalues --    0.46546   0.46686   0.48110   0.48594   0.49584
 Alpha virt. eigenvalues --    0.50092   0.50243   0.51657   0.51836   0.53574
 Alpha virt. eigenvalues --    0.54714   0.56048   0.56164   0.57439   0.57754
 Alpha virt. eigenvalues --    0.58745   0.59507   0.59787   0.60364   0.61066
 Alpha virt. eigenvalues --    0.61385   0.62144   0.62640   0.63450   0.64067
 Alpha virt. eigenvalues --    0.64383   0.64561   0.65052   0.65929   0.66179
 Alpha virt. eigenvalues --    0.66684   0.67272   0.67725   0.68417   0.68785
 Alpha virt. eigenvalues --    0.69132   0.69513   0.70124   0.71049   0.72000
 Alpha virt. eigenvalues --    0.72255   0.72816   0.73427   0.74025   0.74590
 Alpha virt. eigenvalues --    0.75621   0.77083   0.77946   0.78570   0.80043
 Alpha virt. eigenvalues --    0.80238   0.80979   0.81451   0.82724   0.84020
 Alpha virt. eigenvalues --    0.85099   0.85963   0.86500   0.87492   0.88866
 Alpha virt. eigenvalues --    0.89051   0.89729   0.90231   0.91910   0.92878
 Alpha virt. eigenvalues --    0.93579   0.94228   0.95850   0.96887   0.97811
 Alpha virt. eigenvalues --    0.99030   0.99961   1.01640   1.02236   1.03366
 Alpha virt. eigenvalues --    1.04507   1.05293   1.06233   1.07127   1.08184
 Alpha virt. eigenvalues --    1.09242   1.10019   1.10838   1.11899   1.14183
 Alpha virt. eigenvalues --    1.15742   1.17176   1.17943   1.18187   1.20866
 Alpha virt. eigenvalues --    1.23307   1.23676   1.24910   1.25410   1.26700
 Alpha virt. eigenvalues --    1.28130   1.29433   1.29814   1.30610   1.31350
 Alpha virt. eigenvalues --    1.33783   1.34207   1.34654   1.35954   1.36734
 Alpha virt. eigenvalues --    1.38152   1.39106   1.40290   1.40879   1.42155
 Alpha virt. eigenvalues --    1.42888   1.43684   1.44488   1.45388   1.46348
 Alpha virt. eigenvalues --    1.46977   1.49029   1.49801   1.50772   1.52044
 Alpha virt. eigenvalues --    1.52185   1.53843   1.54183   1.54547   1.56032
 Alpha virt. eigenvalues --    1.56815   1.58102   1.60104   1.61134   1.61780
 Alpha virt. eigenvalues --    1.62709   1.63559   1.63980   1.64543   1.65952
 Alpha virt. eigenvalues --    1.66533   1.66980   1.67096   1.67618   1.68025
 Alpha virt. eigenvalues --    1.69041   1.69870   1.70434   1.71530   1.71955
 Alpha virt. eigenvalues --    1.73434   1.74340   1.74879   1.75997   1.76534
 Alpha virt. eigenvalues --    1.76768   1.77585   1.78405   1.79732   1.80388
 Alpha virt. eigenvalues --    1.81061   1.82667   1.83001   1.84058   1.84322
 Alpha virt. eigenvalues --    1.85030   1.86974   1.87961   1.89202   1.89952
 Alpha virt. eigenvalues --    1.91184   1.93310   1.93816   1.95065   1.95704
 Alpha virt. eigenvalues --    1.97182   1.97911   1.98641   1.99869   2.00893
 Alpha virt. eigenvalues --    2.01931   2.03007   2.04526   2.05547   2.08592
 Alpha virt. eigenvalues --    2.09612   2.10269   2.11175   2.13632   2.14908
 Alpha virt. eigenvalues --    2.15524   2.15887   2.16137   2.17167   2.19232
 Alpha virt. eigenvalues --    2.19441   2.21101   2.21957   2.23861   2.25369
 Alpha virt. eigenvalues --    2.29306   2.31888   2.33618   2.39008   2.39341
 Alpha virt. eigenvalues --    2.39980   2.42074   2.43792   2.44039   2.44846
 Alpha virt. eigenvalues --    2.45398   2.46671   2.47974   2.48739   2.49177
 Alpha virt. eigenvalues --    2.49371   2.50380   2.51468   2.52299   2.53275
 Alpha virt. eigenvalues --    2.54266   2.54863   2.56703   2.57507   2.60396
 Alpha virt. eigenvalues --    2.63513   2.64340   2.65124   2.66614   2.67487
 Alpha virt. eigenvalues --    2.69792   2.71462   2.73137   2.73554   2.75390
 Alpha virt. eigenvalues --    2.76668   2.77791   2.80301   2.84250   2.86133
 Alpha virt. eigenvalues --    2.88044   2.90871   2.97772   2.98413   3.02650
 Alpha virt. eigenvalues --    3.08137   3.12063   3.13012   3.16495   3.47806
 Alpha virt. eigenvalues --    3.57301   3.85223  34.77499  34.94898  35.02638
 Alpha virt. eigenvalues --   45.98009
  Beta  occ. eigenvalues --  -77.26430 -19.25827 -19.13635 -19.11872 -14.45474
  Beta  occ. eigenvalues --  -14.43760 -10.31055 -10.30977 -10.30458 -10.27722
  Beta  occ. eigenvalues --  -10.27718 -10.26864 -10.26801 -10.26543 -10.25994
  Beta  occ. eigenvalues --  -10.24771 -10.23449 -10.23367  -6.64452  -4.78107
  Beta  occ. eigenvalues --   -4.78035  -4.77736  -3.03525  -1.87313  -1.86429
  Beta  occ. eigenvalues --   -1.85834  -1.12258  -1.01960  -0.97463  -0.88821
  Beta  occ. eigenvalues --   -0.85698  -0.85337  -0.80409  -0.79481  -0.75862
  Beta  occ. eigenvalues --   -0.73513  -0.72824  -0.72109  -0.66907  -0.65725
  Beta  occ. eigenvalues --   -0.61771  -0.57817  -0.55723  -0.55109  -0.53155
  Beta  occ. eigenvalues --   -0.51045  -0.49898  -0.49401  -0.48017  -0.47347
  Beta  occ. eigenvalues --   -0.46319  -0.45400  -0.44708  -0.44450  -0.44017
  Beta  occ. eigenvalues --   -0.43430  -0.43242  -0.43065  -0.42265  -0.41350
  Beta  occ. eigenvalues --   -0.40894  -0.40235  -0.38886  -0.38459  -0.38162
  Beta  occ. eigenvalues --   -0.36757  -0.36417  -0.35990  -0.35186  -0.33735
  Beta  occ. eigenvalues --   -0.33284  -0.28769  -0.28244  -0.26908  -0.26558
  Beta  occ. eigenvalues --   -0.25766  -0.24521  -0.21474  -0.18031  -0.17438
  Beta virt. eigenvalues --   -0.05175  -0.04861  -0.03455   0.00240   0.01781
  Beta virt. eigenvalues --    0.02327   0.03050   0.03528   0.04301   0.05260
  Beta virt. eigenvalues --    0.06465   0.07593   0.07873   0.08559   0.09366
  Beta virt. eigenvalues --    0.09562   0.10624   0.10801   0.11440   0.12217
  Beta virt. eigenvalues --    0.13154   0.13665   0.13744   0.14090   0.14698
  Beta virt. eigenvalues --    0.15008   0.15439   0.15502   0.16399   0.16978
  Beta virt. eigenvalues --    0.17380   0.17751   0.18603   0.19858   0.20612
  Beta virt. eigenvalues --    0.21293   0.21762   0.21785   0.22469   0.23099
  Beta virt. eigenvalues --    0.23568   0.24445   0.25112   0.25867   0.27713
  Beta virt. eigenvalues --    0.28516   0.29456   0.29894   0.30121   0.32093
  Beta virt. eigenvalues --    0.33207   0.35340   0.35879   0.37623   0.38270
  Beta virt. eigenvalues --    0.40016   0.41371   0.42253   0.43538   0.44422
  Beta virt. eigenvalues --    0.45895   0.46690   0.46779   0.48155   0.48679
  Beta virt. eigenvalues --    0.49580   0.50103   0.50327   0.51728   0.51857
  Beta virt. eigenvalues --    0.53620   0.54749   0.56076   0.56197   0.57488
  Beta virt. eigenvalues --    0.57830   0.58782   0.59545   0.59853   0.60478
  Beta virt. eigenvalues --    0.61103   0.61393   0.62155   0.62855   0.63487
  Beta virt. eigenvalues --    0.64098   0.64454   0.64611   0.65059   0.65955
  Beta virt. eigenvalues --    0.66386   0.66724   0.67281   0.67759   0.68506
  Beta virt. eigenvalues --    0.68854   0.69162   0.69540   0.70157   0.71066
  Beta virt. eigenvalues --    0.72059   0.72293   0.72845   0.73475   0.74099
  Beta virt. eigenvalues --    0.74675   0.75660   0.77216   0.77984   0.78691
  Beta virt. eigenvalues --    0.80077   0.80331   0.81009   0.81473   0.82816
  Beta virt. eigenvalues --    0.84072   0.85132   0.85977   0.86680   0.87533
  Beta virt. eigenvalues --    0.88905   0.89078   0.89748   0.90303   0.91931
  Beta virt. eigenvalues --    0.92915   0.93736   0.94246   0.95982   0.96921
  Beta virt. eigenvalues --    0.97911   0.99066   0.99990   1.01743   1.02273
  Beta virt. eigenvalues --    1.03378   1.04543   1.05338   1.06379   1.07249
  Beta virt. eigenvalues --    1.08497   1.09336   1.10434   1.11079   1.12100
  Beta virt. eigenvalues --    1.14360   1.16396   1.17323   1.18071   1.18428
  Beta virt. eigenvalues --    1.21048   1.23800   1.23958   1.25247   1.26172
  Beta virt. eigenvalues --    1.27101   1.28222   1.29791   1.30605   1.30700
  Beta virt. eigenvalues --    1.31680   1.34218   1.34703   1.35090   1.36127
  Beta virt. eigenvalues --    1.36960   1.38367   1.39261   1.40596   1.41428
  Beta virt. eigenvalues --    1.42331   1.43187   1.43701   1.44587   1.45406
  Beta virt. eigenvalues --    1.46607   1.47071   1.49137   1.49967   1.51114
  Beta virt. eigenvalues --    1.52080   1.52404   1.53971   1.54342   1.54634
  Beta virt. eigenvalues --    1.56119   1.56871   1.58143   1.60140   1.61161
  Beta virt. eigenvalues --    1.61814   1.62728   1.63572   1.64015   1.64558
  Beta virt. eigenvalues --    1.65965   1.66562   1.66998   1.67116   1.67646
  Beta virt. eigenvalues --    1.68052   1.69097   1.69908   1.70466   1.71532
  Beta virt. eigenvalues --    1.71962   1.73486   1.74361   1.74923   1.76021
  Beta virt. eigenvalues --    1.76549   1.76801   1.77611   1.78422   1.79770
  Beta virt. eigenvalues --    1.80410   1.81072   1.82750   1.83063   1.84098
  Beta virt. eigenvalues --    1.84375   1.85095   1.87032   1.88073   1.89227
  Beta virt. eigenvalues --    1.89981   1.91194   1.93330   1.93854   1.95095
  Beta virt. eigenvalues --    1.95755   1.97202   1.97967   1.98651   1.99887
  Beta virt. eigenvalues --    2.00907   2.02006   2.03083   2.04573   2.05588
  Beta virt. eigenvalues --    2.08755   2.09636   2.10372   2.11205   2.13711
  Beta virt. eigenvalues --    2.15095   2.15691   2.16001   2.16146   2.17197
  Beta virt. eigenvalues --    2.19256   2.19499   2.21263   2.22019   2.23907
  Beta virt. eigenvalues --    2.25784   2.29797   2.32285   2.33898   2.39063
  Beta virt. eigenvalues --    2.39459   2.40013   2.42197   2.43810   2.44083
  Beta virt. eigenvalues --    2.44908   2.45426   2.46682   2.48051   2.48759
  Beta virt. eigenvalues --    2.49254   2.49464   2.50410   2.51558   2.52348
  Beta virt. eigenvalues --    2.53301   2.54357   2.54883   2.56790   2.57555
  Beta virt. eigenvalues --    2.60825   2.63764   2.64635   2.65619   2.66953
  Beta virt. eigenvalues --    2.69166   2.70808   2.71898   2.74120   2.75142
  Beta virt. eigenvalues --    2.77054   2.77889   2.80627   2.82544   2.86054
  Beta virt. eigenvalues --    2.88583   2.90268   2.91570   2.98455   3.00728
  Beta virt. eigenvalues --    3.03653   3.08479   3.12293   3.13434   3.17024
  Beta virt. eigenvalues --    3.47819   3.57393   3.85261  34.77602  34.94984
  Beta virt. eigenvalues --   35.02656  45.98069
          Condensed to atoms (all electrons):
               1          2          3          4          5          6
     1  O    7.749088  -0.003103  -0.007333   0.000037  -0.002903  -0.000023
     2  O   -0.003103   8.074960  -0.014913   0.008845  -0.012227  -0.002905
     3  C   -0.007333  -0.014913   4.602783  -0.007001   0.347219  -0.043383
     4  H    0.000037   0.008845  -0.007001   0.547641  -0.017428   0.372479
     5  N   -0.002903  -0.012227   0.347219  -0.017428   6.567322   0.304141
     6  C   -0.000023  -0.002905  -0.043383   0.372479   0.304141   4.717089
     7  C   -0.000193  -0.000639   0.000000  -0.000017   0.000023   0.000001
     8  C   -0.000129   0.000111  -0.000000  -0.000001   0.000011  -0.000000
     9  P   -0.007957  -0.029082  -0.000079   0.000535  -0.007012   0.000654
    10  H    0.000002   0.000561  -0.003261  -0.032177  -0.025438   0.369250
    11  C   -0.000898   0.000049  -0.046978   0.006990   0.352176  -0.056361
    12  C   -0.018104  -0.006712   0.000068  -0.000049   0.000432   0.001127
    13  C    0.000051  -0.007950   0.007726  -0.004927  -0.015711   0.423591
    14  N   -0.000927  -0.008858   0.000533  -0.004854  -0.012373  -0.052902
    15  C    0.000013  -0.000392   0.000002  -0.000015   0.000051  -0.000684
    16  C    0.000004  -0.002554   0.000045  -0.000187  -0.000716   0.006834
    17  C   -0.000000  -0.000119  -0.000225  -0.001376   0.004319  -0.070542
    18  H    0.000000  -0.000011  -0.000026  -0.000311   0.000201  -0.010576
    19  H    0.000001  -0.000021  -0.000001   0.000004   0.000003   0.000015
    20  H   -0.000000  -0.000009  -0.000000   0.000002  -0.000002   0.000015
    21  C   -0.000000   0.000014  -0.000002   0.000198   0.000003   0.000715
    22  C    0.000000  -0.000007   0.000007  -0.000148  -0.000123   0.005331
    23  H    0.000000   0.000001  -0.000000  -0.000001   0.000000   0.000051
    24  H   -0.000000  -0.000000  -0.000000  -0.000001   0.000002  -0.000274
    25  O    0.000222   0.000003   0.000018   0.000000  -0.000057   0.000010
    26  H   -0.000005   0.000570   0.000000   0.000000  -0.000001  -0.000001
    27  H   -0.000308  -0.001935  -0.000002   0.000005  -0.000003   0.000000
    28  H    0.000120   0.005727   0.000004  -0.000016   0.000022  -0.000016
    29  H   -0.000233   0.000008  -0.000000  -0.000000   0.000002  -0.000001
    30  H   -0.000411   0.000014   0.000000   0.000000   0.000000  -0.000000
    31  H   -0.000008   0.000001   0.000000   0.000000  -0.000000   0.000000
    32  H    0.003468  -0.000419   0.399003   0.000759  -0.017696   0.004942
    33  H    0.000211  -0.000060   0.382324  -0.003443  -0.028193  -0.005664
    34  H   -0.004224   0.011805   0.397781   0.003620  -0.017959  -0.002447
    35  H    0.000083  -0.000009   0.006972   0.000390  -0.023565  -0.001229
    36  H   -0.000040  -0.000012  -0.005506  -0.000392  -0.028121  -0.007765
    37  H   -0.002831   0.000052   0.000267  -0.000359  -0.018417   0.008534
    38  Ru   0.372507   0.353811  -0.043779   0.007191   0.041093  -0.077862
    39  H    0.303510   0.000262   0.000205  -0.000001   0.000698   0.000023
               7          8          9         10         11         12
     1  O   -0.000193  -0.000129  -0.007957   0.000002  -0.000898  -0.018104
     2  O   -0.000639   0.000111  -0.029082   0.000561   0.000049  -0.006712
     3  C    0.000000  -0.000000  -0.000079  -0.003261  -0.046978   0.000068
     4  H   -0.000017  -0.000001   0.000535  -0.032177   0.006990  -0.000049
     5  N    0.000023   0.000011  -0.007012  -0.025438   0.352176   0.000432
     6  C    0.000001  -0.000000   0.000654   0.369250  -0.056361   0.001127
     7  C    4.715479  -0.037728   0.406030   0.000001   0.000000   0.000995
     8  C   -0.037728   4.745243   0.388472   0.000000  -0.000001  -0.005089
     9  P    0.406030   0.388472  14.077102  -0.000078   0.000172  -0.014555
    10  H    0.000001   0.000000  -0.000078   0.663116  -0.007723   0.000013
    11  C    0.000000  -0.000001   0.000172  -0.007723   4.589088  -0.003733
    12  C    0.000995  -0.005089  -0.014555   0.000013  -0.003733   5.298353
    13  C   -0.000138   0.000004   0.001710  -0.022631  -0.003026  -0.002143
    14  N   -0.000034   0.000315  -0.008968   0.004524  -0.000351  -0.000242
    15  C   -0.031558  -0.029734   0.346510   0.000017  -0.000015  -0.002870
    16  C    0.000950   0.001674  -0.030394   0.000040  -0.000183  -0.003766
    17  C   -0.000006  -0.000000  -0.000159  -0.005799  -0.000441  -0.000073
    18  H   -0.000000  -0.000000  -0.000005   0.002455  -0.000038  -0.000004
    19  H    0.003204  -0.003144  -0.018351  -0.000000  -0.000004   0.001729
    20  H   -0.003800  -0.001438  -0.013270  -0.000001   0.000000   0.000193
    21  C   -0.000036  -0.000076   0.006592  -0.000151   0.000007  -0.000039
    22  C    0.000001   0.000002  -0.000352   0.000740  -0.000009   0.000038
    23  H   -0.000017  -0.000008   0.000181  -0.000002  -0.000000  -0.000012
    24  H   -0.000000  -0.000000   0.000008   0.000009  -0.000000  -0.000000
    25  O   -0.000005  -0.000530  -0.004115   0.000000  -0.000582   0.612717
    26  H    0.368072  -0.004657  -0.024368  -0.000000   0.000000  -0.000019
    27  H    0.391682  -0.001144  -0.012432   0.000000  -0.000000  -0.000052
    28  H    0.390025   0.002973  -0.015277  -0.000001   0.000000   0.000056
    29  H    0.003390   0.386241  -0.010731   0.000000   0.000001   0.004750
    30  H   -0.000294   0.390308  -0.018933   0.000000  -0.000000  -0.000099
    31  H   -0.003662   0.373165  -0.018518  -0.000000   0.000000   0.000265
    32  H   -0.000000  -0.000001   0.000215  -0.000698  -0.001674   0.000624
    33  H    0.000000   0.000000  -0.000032   0.006213  -0.006709  -0.000027
    34  H   -0.000010  -0.000001   0.000529  -0.001110   0.005851   0.000038
    35  H    0.000000  -0.000001   0.000275  -0.003293   0.391877  -0.002495
    36  H    0.000000   0.000000  -0.000031   0.009342   0.382485   0.001148
    37  H   -0.000000  -0.000001   0.000126  -0.000056   0.398427   0.007548
    38  Ru  -0.030145  -0.012804  -0.045500   0.011152  -0.015361   0.123480
    39  H    0.000070   0.000055  -0.005122   0.000000   0.000008  -0.008801
              13         14         15         16         17         18
     1  O    0.000051  -0.000927   0.000013   0.000004  -0.000000   0.000000
     2  O   -0.007950  -0.008858  -0.000392  -0.002554  -0.000119  -0.000011
     3  C    0.007726   0.000533   0.000002   0.000045  -0.000225  -0.000026
     4  H   -0.004927  -0.004854  -0.000015  -0.000187  -0.001376  -0.000311
     5  N   -0.015711  -0.012373   0.000051  -0.000716   0.004319   0.000201
     6  C    0.423591  -0.052902  -0.000684   0.006834  -0.070542  -0.010576
     7  C   -0.000138  -0.000034  -0.031558   0.000950  -0.000006  -0.000000
     8  C    0.000004   0.000315  -0.029734   0.001674  -0.000000  -0.000000
     9  P    0.001710  -0.008968   0.346510  -0.030394  -0.000159  -0.000005
    10  H   -0.022631   0.004524   0.000017   0.000040  -0.005799   0.002455
    11  C   -0.003026  -0.000351  -0.000015  -0.000183  -0.000441  -0.000038
    12  C   -0.002143  -0.000242  -0.002870  -0.003766  -0.000073  -0.000004
    13  C    4.870219   0.444031   0.007819  -0.060530   0.505048  -0.039327
    14  N    0.444031   6.529647  -0.065364   0.465700  -0.027107   0.005186
    15  C    0.007819  -0.065364   4.906276   0.424085   0.000889   0.000059
    16  C   -0.060530   0.465700   0.424085   4.823684  -0.052684   0.000434
    17  C    0.505048  -0.027107   0.000889  -0.052684   4.837151   0.406549
    18  H   -0.039327   0.005186   0.000059   0.000434   0.406549   0.670149
    19  H   -0.000347  -0.002159   0.362862  -0.006072   0.000046  -0.000000
    20  H    0.000103   0.003650   0.364906  -0.013393  -0.000132  -0.000002
    21  C   -0.054821  -0.023448  -0.070154   0.513028   0.006996   0.008659
    22  C   -0.019540  -0.038755   0.005276  -0.023628   0.482921  -0.043170
    23  H    0.000473   0.005207  -0.010520  -0.039717   0.008636  -0.000226
    24  H    0.008616  -0.000129  -0.000296   0.008721  -0.044364  -0.012197
    25  O    0.000013  -0.000230  -0.000170   0.000019   0.000000  -0.000000
    26  H    0.000015   0.000023  -0.004865  -0.000292   0.000001   0.000000
    27  H   -0.000001   0.000017   0.003035   0.000059  -0.000000  -0.000000
    28  H   -0.000119   0.000593  -0.000288   0.000823  -0.000014  -0.000000
    29  H    0.000001   0.000011  -0.002625   0.000248   0.000000   0.000000
    30  H    0.000000  -0.000001   0.003039  -0.000103   0.000000   0.000000
    31  H    0.000001   0.000003  -0.003420   0.000177   0.000000  -0.000000
    32  H   -0.000243   0.000015   0.000001  -0.000001   0.000012  -0.000000
    33  H    0.001029  -0.000038   0.000000  -0.000001   0.000033   0.000011
    34  H   -0.000083   0.000183  -0.000002   0.000019  -0.000101  -0.000006
    35  H    0.005282   0.000413  -0.000024  -0.000009   0.000067  -0.000153
    36  H   -0.001855   0.000097   0.000000  -0.000004   0.000033  -0.000021
    37  H   -0.000653  -0.000013  -0.000008   0.000029  -0.000076  -0.000004
    38  Ru  -0.111352   0.123786  -0.092005  -0.108647  -0.005952   0.002838
    39  H    0.000004   0.000079  -0.000025  -0.000026   0.000000  -0.000000
              19         20         21         22         23         24
     1  O    0.000001  -0.000000  -0.000000   0.000000   0.000000  -0.000000
     2  O   -0.000021  -0.000009   0.000014  -0.000007   0.000001  -0.000000
     3  C   -0.000001  -0.000000  -0.000002   0.000007  -0.000000  -0.000000
     4  H    0.000004   0.000002   0.000198  -0.000148  -0.000001  -0.000001
     5  N    0.000003  -0.000002   0.000003  -0.000123   0.000000   0.000002
     6  C    0.000015   0.000015   0.000715   0.005331   0.000051  -0.000274
     7  C    0.003204  -0.003800  -0.000036   0.000001  -0.000017  -0.000000
     8  C   -0.003144  -0.001438  -0.000076   0.000002  -0.000008  -0.000000
     9  P   -0.018351  -0.013270   0.006592  -0.000352   0.000181   0.000008
    10  H   -0.000000  -0.000001  -0.000151   0.000740  -0.000002   0.000009
    11  C   -0.000004   0.000000   0.000007  -0.000009  -0.000000  -0.000000
    12  C    0.001729   0.000193  -0.000039   0.000038  -0.000012  -0.000000
    13  C   -0.000347   0.000103  -0.054821  -0.019540   0.000473   0.008616
    14  N   -0.002159   0.003650  -0.023448  -0.038755   0.005207  -0.000129
    15  C    0.362862   0.364906  -0.070154   0.005276  -0.010520  -0.000296
    16  C   -0.006072  -0.013393   0.513028  -0.023628  -0.039717   0.008721
    17  C    0.000046  -0.000132   0.006996   0.482921   0.008636  -0.044364
    18  H   -0.000000  -0.000002   0.008659  -0.043170  -0.000226  -0.012197
    19  H    0.581565  -0.024296  -0.001185  -0.000043   0.000178   0.000003
    20  H   -0.024296   0.624674  -0.005020   0.000791   0.001735  -0.000003
    21  C   -0.001185  -0.005020   4.816981   0.488103   0.406162  -0.044456
    22  C   -0.000043   0.000791   0.488103   4.708514  -0.041008   0.403069
    23  H    0.000178   0.001735   0.406162  -0.041008   0.672208  -0.012405
    24  H    0.000003  -0.000003  -0.044456   0.403069  -0.012405   0.670782
    25  O   -0.000643  -0.000023  -0.000006  -0.000000  -0.000000  -0.000000
    26  H   -0.000226   0.003246  -0.000026  -0.000003  -0.000012  -0.000000
    27  H   -0.000088  -0.000140   0.000005  -0.000000   0.000000   0.000000
    28  H   -0.000070  -0.000434  -0.000138   0.000015  -0.000017  -0.000001
    29  H    0.003563  -0.000388   0.000006  -0.000000   0.000000  -0.000000
    30  H   -0.000005  -0.000152   0.000001  -0.000000  -0.000000   0.000000
    31  H   -0.000834   0.002097  -0.000001  -0.000000   0.000000  -0.000000
    32  H   -0.000000   0.000000   0.000000  -0.000000  -0.000000   0.000000
    33  H    0.000000  -0.000000   0.000000  -0.000000   0.000000   0.000000
    34  H    0.000000   0.000000  -0.000000   0.000001   0.000000   0.000000
    35  H    0.000015   0.000000  -0.000028   0.000072  -0.000001  -0.000006
    36  H    0.000000  -0.000000   0.000001  -0.000003  -0.000000   0.000000
    37  H    0.000000   0.000000   0.000002  -0.000001   0.000000   0.000000
    38  Ru   0.003372   0.000499   0.001414  -0.008743   0.001797   0.000700
    39  H    0.000019   0.000002   0.000001   0.000000  -0.000000   0.000000
              25         26         27         28         29         30
     1  O    0.000222  -0.000005  -0.000308   0.000120  -0.000233  -0.000411
     2  O    0.000003   0.000570  -0.001935   0.005727   0.000008   0.000014
     3  C    0.000018   0.000000  -0.000002   0.000004  -0.000000   0.000000
     4  H    0.000000   0.000000   0.000005  -0.000016  -0.000000   0.000000
     5  N   -0.000057  -0.000001  -0.000003   0.000022   0.000002   0.000000
     6  C    0.000010  -0.000001   0.000000  -0.000016  -0.000001  -0.000000
     7  C   -0.000005   0.368072   0.391682   0.390025   0.003390  -0.000294
     8  C   -0.000530  -0.004657  -0.001144   0.002973   0.386241   0.390308
     9  P   -0.004115  -0.024368  -0.012432  -0.015277  -0.010731  -0.018933
    10  H    0.000000  -0.000000   0.000000  -0.000001   0.000000   0.000000
    11  C   -0.000582   0.000000  -0.000000   0.000000   0.000001  -0.000000
    12  C    0.612717  -0.000019  -0.000052   0.000056   0.004750  -0.000099
    13  C    0.000013   0.000015  -0.000001  -0.000119   0.000001   0.000000
    14  N   -0.000230   0.000023   0.000017   0.000593   0.000011  -0.000001
    15  C   -0.000170  -0.004865   0.003035  -0.000288  -0.002625   0.003039
    16  C    0.000019  -0.000292   0.000059   0.000823   0.000248  -0.000103
    17  C    0.000000   0.000001  -0.000000  -0.000014   0.000000   0.000000
    18  H   -0.000000   0.000000  -0.000000  -0.000000   0.000000   0.000000
    19  H   -0.000643  -0.000226  -0.000088  -0.000070   0.003563  -0.000005
    20  H   -0.000023   0.003246  -0.000140  -0.000434  -0.000388  -0.000152
    21  C   -0.000006  -0.000026   0.000005  -0.000138   0.000006   0.000001
    22  C   -0.000000  -0.000003  -0.000000   0.000015  -0.000000  -0.000000
    23  H   -0.000000  -0.000012   0.000000  -0.000017   0.000000  -0.000000
    24  H   -0.000000  -0.000000   0.000000  -0.000001  -0.000000   0.000000
    25  O    7.479278  -0.000000   0.000000  -0.000000   0.001060  -0.000082
    26  H   -0.000000   0.642191  -0.022265  -0.022409  -0.000117  -0.000422
    27  H    0.000000  -0.022265   0.563882  -0.012331   0.000060   0.001989
    28  H   -0.000000  -0.022409  -0.012331   0.517206  -0.000072  -0.000044
    29  H    0.001060  -0.000117   0.000060  -0.000072   0.568547  -0.017047
    30  H   -0.000082  -0.000422   0.001989  -0.000044  -0.017047   0.566600
    31  H   -0.000044   0.003533  -0.000496  -0.000231  -0.021172  -0.018711
    32  H    0.000000   0.000000   0.000001  -0.000001  -0.000000   0.000000
[...]
    13  C(13)             -0.00176      -1.98156      -0.70707      -0.66098
    14  N(14)              0.12129      39.18956      13.98381      13.07223
    15  C(13)              0.00144       1.61796       0.57733       0.53969
    16  C(13)             -0.00420      -4.72384      -1.68558      -1.57570
    17  C(13)              0.00475       5.34133       1.90592       1.78168
    18  H(1)               0.00041       1.83705       0.65551       0.61277
    19  H(1)              -0.00023      -1.01782      -0.36318      -0.33951
    20  H(1)              -0.00032      -1.40825      -0.50250      -0.46974
    21  C(13)              0.00322       3.62245       1.29258       1.20832
    22  C(13)             -0.00049      -0.55144      -0.19677      -0.18394
    23  H(1)               0.00032       1.43577       0.51232       0.47892
    24  H(1)               0.00011       0.50162       0.17899       0.16732
    25  O(17)              0.00705      -4.27113      -1.52404      -1.42469
    26  H(1)               0.00004       0.16763       0.05982       0.05592
    27  H(1)               0.00021       0.94501       0.33720       0.31522
    28  H(1)              -0.00002      -0.08576      -0.03060      -0.02861
    29  H(1)              -0.00001      -0.04227      -0.01508      -0.01410
    30  H(1)               0.00028       1.27351       0.45442       0.42480
    31  H(1)               0.00057       2.54436       0.90789       0.84871
    32  H(1)               0.00036       1.59023       0.56743       0.53044
    33  H(1)               0.00095       4.24354       1.51420       1.41549
    34  H(1)               0.00019       0.83874       0.29928       0.27977
    35  H(1)               0.00000       0.00256       0.00091       0.00085
    36  H(1)               0.00004       0.16431       0.05863       0.05481
    37  H(1)               0.00000       0.02118       0.00756       0.00707
    38  Ru(99)             0.00001      -0.00276      -0.00099      -0.00092
    39  H(1)              -0.00057      -2.53932      -0.90609      -0.84702
 --------------------------------------------------------
       Center         ----  Spin Dipole Couplings  ----
                      3XX-RR        3YY-RR        3ZZ-RR
 --------------------------------------------------------
     1   Atom       -0.073720     -0.100601      0.174321
     2   Atom       -0.032838     -0.011292      0.044130
     3   Atom        0.005917     -0.001972     -0.003946
     4   Atom        0.003331     -0.002871     -0.000461
     5   Atom        0.016194     -0.006463     -0.009731
     6   Atom        0.006697     -0.001688     -0.005009
     7   Atom        0.001675      0.001644     -0.003319
     8   Atom        0.002485     -0.000603     -0.001882
     9   Atom       -0.016627      0.013293      0.003334
    10   Atom        0.003581     -0.001471     -0.002110
    11   Atom        0.004427     -0.002956     -0.001471
    12   Atom       -0.033847      0.007934      0.025913
    13   Atom        0.018317      0.001899     -0.020216
    14   Atom       -0.039974      0.100532     -0.060558
    15   Atom        0.002566      0.000600     -0.003166
    16   Atom        0.001185      0.013559     -0.014744
    17   Atom       -0.003036      0.001764      0.001273
    18   Atom        0.001101      0.000010     -0.001111
    19   Atom       -0.000801      0.001686     -0.000885
    20   Atom       -0.000174      0.001940     -0.001766
    21   Atom       -0.004158      0.002011      0.002147
    22   Atom        0.003552      0.007232     -0.010783
    23   Atom       -0.001112      0.002118     -0.001006
    24   Atom        0.000084      0.000708     -0.000793
    25   Atom       -0.071393      0.050371      0.021022
    26   Atom        0.000775      0.000086     -0.000861
    27   Atom        0.001761     -0.001521     -0.000240
    28   Atom       -0.000888      0.000243      0.000646
    29   Atom        0.002106     -0.001655     -0.000451
    30   Atom        0.004336     -0.002015     -0.002322
    31   Atom        0.001713     -0.000571     -0.001142
    32   Atom        0.003580      0.000471     -0.004051
    33   Atom        0.002954     -0.001244     -0.001709
    34   Atom        0.003613     -0.002542     -0.001071
    35   Atom        0.002350     -0.002695      0.000345
    36   Atom        0.002662     -0.001562     -0.001100
    37   Atom        0.002074     -0.002512      0.000438
    38   Atom       -0.056475      0.151239     -0.094765
    39   Atom        0.002919     -0.009890      0.006971
 --------------------------------------------------------
                        XY            XZ            YZ
 --------------------------------------------------------
     1   Atom        0.004767     -0.055276      0.025603
     2   Atom       -0.009356      0.015133     -0.060421
     3   Atom       -0.002950     -0.002217      0.000376
     4   Atom        0.002097     -0.004775     -0.000946
     5   Atom       -0.004997      0.000500      0.000714
     6   Atom        0.000156     -0.004231      0.001633
     7   Atom       -0.001826      0.000734     -0.001345
     8   Atom       -0.002924     -0.001414      0.001428
     9   Atom        0.016817      0.002307      0.004414
    10   Atom        0.001207     -0.000728     -0.000050
    11   Atom       -0.000114      0.004478     -0.000111
    12   Atom        0.009470     -0.005761      0.007772
    13   Atom        0.004835     -0.001425      0.001668
    14   Atom        0.094832      0.016389      0.018460
    15   Atom       -0.006815     -0.003608      0.000324
    16   Atom       -0.003738     -0.008465      0.007498
    17   Atom        0.003544      0.000742     -0.002341
    18   Atom        0.001665     -0.000422     -0.000289
    19   Atom       -0.002638     -0.002186      0.002994
    20   Atom       -0.002108     -0.000443      0.000336
    21   Atom        0.001230      0.000889     -0.001403
    22   Atom        0.001728     -0.003195      0.000890
    23   Atom       -0.000464     -0.000011      0.000296
    24   Atom        0.000303     -0.000102      0.000201
    25   Atom        0.029426      0.005888      0.063332
    26   Atom       -0.001601      0.001079     -0.001086
    27   Atom       -0.001740      0.002858     -0.001205
    28   Atom       -0.002241      0.003025     -0.003152
    29   Atom       -0.001531     -0.002902      0.001095
    30   Atom       -0.000692     -0.000901      0.000200
    31   Atom       -0.001489     -0.000652      0.000327
    32   Atom       -0.005385     -0.000120     -0.000365
    33   Atom       -0.001580     -0.000743      0.000263
    34   Atom       -0.003894     -0.004734      0.002293
    35   Atom        0.001405      0.004919      0.000965
    36   Atom       -0.000249      0.001727     -0.000066
    37   Atom       -0.001556      0.004626     -0.001593
    38   Atom        0.065876      0.014775      0.080455
    39   Atom        0.002842      0.006683      0.005148
 --------------------------------------------------------


 ---------------------------------------------------------------------------------
              Anisotropic Spin Dipole Couplings in Principal Axis System
 ---------------------------------------------------------------------------------

       Atom             a.u.   MegaHertz   Gauss  10(-4) cm-1        Axes

              Baa    -0.1072     7.755     2.767     2.587 -0.3925  0.9058 -0.1595
     1 O(17)  Bbb    -0.0809     5.855     2.089     1.953  0.8967  0.4155  0.1525
              Bcc     0.1881   -13.610    -4.856    -4.540 -0.2044  0.0831  0.9753
 
              Baa    -0.0501     3.622     1.293     1.208 -0.0200  0.8401  0.5421
     2 O(17)  Bbb    -0.0355     2.569     0.917     0.857  0.9887  0.0972 -0.1142
              Bcc     0.0856    -6.191    -2.209    -2.065  0.1486 -0.5337  0.8325
 
              Baa    -0.0045    -0.598    -0.213    -0.200  0.2467  0.1477  0.9578
     3 C(13)  Bbb    -0.0029    -0.386    -0.138    -0.129  0.2621  0.9413 -0.2127
              Bcc     0.0073     0.985     0.351     0.328  0.9330 -0.3035 -0.1935
 
              Baa    -0.0040    -2.114    -0.754    -0.705  0.5634 -0.5447  0.6212
     4 H(1)   Bbb    -0.0031    -1.669    -0.596    -0.557  0.1566  0.8086  0.5671
              Bcc     0.0071     3.782     1.350     1.262  0.8112  0.2222 -0.5409
 
              Baa    -0.0100    -0.385    -0.138    -0.129 -0.0751 -0.2987  0.9514
     5 N(14)  Bbb    -0.0073    -0.280    -0.100    -0.093  0.1920  0.9319  0.3078
              Bcc     0.0173     0.665     0.237     0.222  0.9785 -0.2058  0.0127
 
              Baa    -0.0069    -0.922    -0.329    -0.308  0.2874 -0.2955  0.9111
     6 C(13)  Bbb    -0.0012    -0.162    -0.058    -0.054  0.1257  0.9546  0.2700
              Bcc     0.0081     1.084     0.387     0.362  0.9495 -0.0369 -0.3115
 
              Baa    -0.0037    -0.493    -0.176    -0.164 -0.0559  0.2267  0.9723
     7 C(13)  Bbb    -0.0001    -0.016    -0.006    -0.005  0.7319  0.6717 -0.1145
              Bcc     0.0038     0.509     0.182     0.170 -0.6791  0.7052 -0.2035
 
              Baa    -0.0029    -0.387    -0.138    -0.129 -0.1831 -0.6796  0.7104
     8 C(13)  Bbb    -0.0019    -0.259    -0.093    -0.087  0.5543  0.5254  0.6455
              Bcc     0.0048     0.646     0.231     0.216  0.8119 -0.5120 -0.2805
 
              Baa    -0.0242    -5.227    -1.865    -1.744  0.9128 -0.4084 -0.0110
     9 P(31)  Bbb     0.0020     0.438     0.156     0.146 -0.0946 -0.2375  0.9668
              Bcc     0.0222     4.789     1.709     1.598  0.3974  0.8814  0.2554
 
              Baa    -0.0022    -1.186    -0.423    -0.396  0.1622 -0.1965  0.9670
    10 H(1)   Bbb    -0.0017    -0.917    -0.327    -0.306 -0.1867  0.9562  0.2256
              Bcc     0.0039     2.102     0.750     0.701  0.9689  0.2172 -0.1184
 
              Baa    -0.0039    -0.521    -0.186    -0.174 -0.4732  0.0469  0.8797
    11 C(13)  Bbb    -0.0030    -0.397    -0.142    -0.132  0.0360  0.9988 -0.0338
              Bcc     0.0068     0.918     0.328     0.306  0.8802 -0.0157  0.4743
 
              Baa    -0.0367    -4.931    -1.760    -1.645  0.9672 -0.2253  0.1169
    12 C(13)  Bbb     0.0079     1.056     0.377     0.352  0.2512  0.9156 -0.3141
              Bcc     0.0289     3.876     1.383     1.293 -0.0362  0.3331  0.9422
 
              Baa    -0.0204    -2.741    -0.978    -0.914  0.0472 -0.0846  0.9953
    13 C(13)  Bbb     0.0008     0.103     0.037     0.034 -0.2573  0.9617  0.0939
              Bcc     0.0197     2.638     0.941     0.880  0.9652  0.2606 -0.0236
 
              Baa    -0.0893    -3.443    -1.228    -1.148  0.8786 -0.4163 -0.2339
    14 N(14)  Bbb    -0.0617    -2.381    -0.849    -0.794  0.1606 -0.2037  0.9658
              Bcc     0.1510     5.823     2.078     1.942  0.4497  0.8861  0.1122
 
              Baa    -0.0068    -0.909    -0.324    -0.303  0.6169  0.5450  0.5678
    15 C(13)  Bbb    -0.0024    -0.323    -0.115    -0.108 -0.2169 -0.5758  0.7883
              Bcc     0.0092     1.233     0.440     0.411  0.7566 -0.6095 -0.2370
 
              Baa    -0.0193    -2.595    -0.926    -0.866  0.3491 -0.1704  0.9215
    16 C(13)  Bbb     0.0017     0.235     0.084     0.078  0.8669  0.4321 -0.2485
              Bcc     0.0176     2.360     0.842     0.787 -0.3559  0.8856  0.2985
 
              Baa    -0.0054    -0.725    -0.259    -0.242  0.8267 -0.4958 -0.2659
    17 C(13)  Bbb     0.0008     0.105     0.037     0.035  0.4587  0.3202  0.8289
              Bcc     0.0046     0.620     0.221     0.207  0.3258  0.8072 -0.4922
 
              Baa    -0.0012    -0.644    -0.230    -0.215 -0.5525  0.6257 -0.5507
    18 H(1)   Bbb    -0.0012    -0.628    -0.224    -0.209 -0.2289  0.5214  0.8221
              Bcc     0.0024     1.271     0.454     0.424  0.8015  0.5802 -0.1448
 
              Baa    -0.0031    -1.653    -0.590    -0.551  0.5219 -0.2269  0.8223
    19 H(1)   Bbb    -0.0024    -1.283    -0.458    -0.428  0.7078  0.6532 -0.2690
              Bcc     0.0055     2.937     1.048     0.980 -0.4761  0.7224  0.5015
 
              Baa    -0.0019    -1.019    -0.364    -0.340  0.4023  0.1414  0.9045
    20 H(1)   Bbb    -0.0014    -0.739    -0.264    -0.246  0.7492  0.5171 -0.4140
              Bcc     0.0033     1.758     0.627     0.586 -0.5262  0.8442  0.1021
 
              Baa    -0.0046    -0.616    -0.220    -0.206  0.9613 -0.2155 -0.1717
    21 C(13)  Bbb     0.0011     0.148     0.053     0.049  0.2739  0.6799  0.6803
              Bcc     0.0035     0.468     0.167     0.156 -0.0298 -0.7010  0.7126
 
              Baa    -0.0115    -1.549    -0.553    -0.517  0.2138 -0.0659  0.9747
    22 C(13)  Bbb     0.0036     0.486     0.173     0.162  0.8996 -0.3757 -0.2227
              Bcc     0.0079     1.063     0.379     0.355  0.3809  0.9244 -0.0210
 
              Baa    -0.0012    -0.631    -0.225    -0.211  0.9687  0.1535 -0.1951
    23 H(1)   Bbb    -0.0010    -0.548    -0.196    -0.183  0.2064 -0.0614  0.9765
              Bcc     0.0022     1.179     0.421     0.393 -0.1379  0.9862  0.0912
 
              Baa    -0.0008    -0.449    -0.160    -0.150  0.1592 -0.1577  0.9746
    24 H(1)   Bbb    -0.0000    -0.001    -0.001    -0.000  0.9202 -0.3340 -0.2043
              Bcc     0.0008     0.451     0.161     0.150  0.3577  0.9293  0.0920
 
              Baa    -0.0791     5.725     2.043     1.910  0.9545 -0.2743  0.1173
    25 O(17)  Bbb    -0.0257     1.857     0.663     0.619 -0.2573 -0.5578  0.7891
              Bcc     0.1048    -7.582    -2.706    -2.529  0.1510  0.7834  0.6029
 
              Baa    -0.0016    -0.839    -0.300    -0.280 -0.0331  0.5250  0.8505
    26 H(1)   Bbb    -0.0011    -0.610    -0.218    -0.204  0.7084  0.6126 -0.3505
              Bcc     0.0027     1.450     0.517     0.484  0.7050 -0.5909  0.3922
 
              Baa    -0.0023    -1.220    -0.435    -0.407  0.6118  0.6230 -0.4874
    27 H(1)   Bbb    -0.0022    -1.196    -0.427    -0.399 -0.1787  0.7091  0.6820
              Bcc     0.0045     2.416     0.862     0.806  0.7705 -0.3302  0.5452
 
              Baa    -0.0033    -1.743    -0.622    -0.581  0.7223 -0.1459 -0.6760
    28 H(1)   Bbb    -0.0025    -1.311    -0.468    -0.437  0.4846  0.8041  0.3443
              Bcc     0.0057     3.055     1.090     1.019  0.4934 -0.5763  0.6515
 
              Baa    -0.0024    -1.271    -0.453    -0.424  0.3858 -0.4231  0.8198
    29 H(1)   Bbb    -0.0022    -1.166    -0.416    -0.389  0.4596  0.8587  0.2268
              Bcc     0.0046     2.437     0.869     0.813  0.7999 -0.2893 -0.5258
 
              Baa    -0.0025    -1.319    -0.471    -0.440  0.0995 -0.2691  0.9580
    30 H(1)   Bbb    -0.0021    -1.100    -0.393    -0.367  0.1393  0.9570  0.2544
              Bcc     0.0045     2.419     0.863     0.807  0.9852 -0.1082 -0.1327
 
              Baa    -0.0013    -0.697    -0.249    -0.232  0.3995  0.8957 -0.1952
    31 H(1)   Bbb    -0.0013    -0.685    -0.244    -0.228  0.2566  0.0952  0.9618
              Bcc     0.0026     1.382     0.493     0.461  0.8801 -0.4343 -0.1918
 
              Baa    -0.0042    -2.268    -0.809    -0.756  0.2795  0.3867  0.8788
    32 H(1)   Bbb    -0.0034    -1.804    -0.644    -0.602  0.5325  0.6992 -0.4770
              Bcc     0.0076     4.072     1.453     1.358  0.7989 -0.6013  0.0106
 
              Baa    -0.0018    -0.976    -0.348    -0.326  0.0627 -0.2629  0.9628
    33 H(1)   Bbb    -0.0018    -0.944    -0.337    -0.315  0.3409  0.9123  0.2270
              Bcc     0.0036     1.920     0.685     0.640  0.9380 -0.3140 -0.1468
 
              Baa    -0.0044    -2.362    -0.843    -0.788  0.4354  0.9003 -0.0010
    34 H(1)   Bbb    -0.0040    -2.128    -0.759    -0.710  0.4369 -0.2104  0.8745
              Bcc     0.0084     4.490     1.602     1.498  0.7871 -0.3812 -0.4849
 
              Baa    -0.0037    -1.974    -0.704    -0.659 -0.6456  0.1931  0.7389
    35 H(1)   Bbb    -0.0030    -1.587    -0.566    -0.529 -0.0120  0.9648 -0.2626
              Bcc     0.0067     3.562     1.271     1.188  0.7636  0.1784  0.6206
 
              Baa    -0.0018    -0.948    -0.338    -0.316 -0.3658 -0.1406  0.9200
    36 H(1)   Bbb    -0.0016    -0.838    -0.299    -0.280 -0.0030  0.9887  0.1499
              Bcc     0.0033     1.786     0.637     0.596  0.9307 -0.0521  0.3621
 
              Baa    -0.0035    -1.887    -0.674    -0.630 -0.5163  0.3958  0.7594
    37 H(1)   Bbb    -0.0030    -1.580    -0.564    -0.527  0.4300  0.8867 -0.1698
              Bcc     0.0065     3.468     1.237     1.157  0.7406 -0.2389  0.6280
 
              Baa    -0.1192     2.921     1.042     0.974  0.0979 -0.3056  0.9471
    38 Ru(99) Bbb    -0.0742     1.818     0.649     0.606  0.9605 -0.2200 -0.1702
              Bcc     0.1934    -4.738    -1.691    -1.581  0.2603  0.9264  0.2720
 
              Baa    -0.0114    -6.088    -2.172    -2.031 -0.0789  0.9670 -0.2421
    39 H(1)   Bbb    -0.0020    -1.056    -0.377    -0.352  0.8193 -0.0755 -0.5683
              Bcc     0.0134     7.144     2.549     2.383  0.5679  0.2432  0.7864
 

 ---------------------------------------------------------------------------------

 1\1\GINC-NODE286\Scan\UPBE1PBE\GenECP\C12H20N2O3P1Ru1(2)\JS1212\30-Jun
 -2020\0\\# opt=ModRedundant genecp pbe1pbe EmpiricalDispersion=GD3BJ N
 oSymm Geom=AllCheck\\Title Card Required\\0,2\O,-0.0481917481,-2.01604
 4633,-2.4764569569\O,0.0566693782,-0.6774896443,-1.9413549176\C,2.3962
 502144,-2.4791669211,-0.5523912896\H,2.2472941817,-0.2439216106,-1.655
 1225694\N,2.0039291745,-1.2471953701,0.1401173881\C,2.5246359361,-0.08
 26572584,-0.6010468848\C,-2.7703466901,0.649546163,-1.7021547892\C,-3.
 7076473612,-0.1160004865,0.9218006008\P,-2.1725685604,0.2065563823,-0.
 0266835379\H,3.6242275272,-0.0132376473,-0.5077637474\C,2.5377936396,-
 1.2418132469,1.5043083241\C,-0.5932123996,-1.3433341804,1.8616803502\C
 ,1.8606583342,1.2055624787,-0.1969614295\N,0.5675897225,1.0878440827,0
 .1336267703\C,-1.6382984318,1.862660959,0.6997832329\C,-0.2074700326,2
 .1616661193,0.3583965445\C,2.4667968166,2.4559059869,-0.2629921259\H,3
 .5239407892,2.5428888691,-0.5179540433\H,-1.7141371833,1.717643847,1.7
 925185037\H,-2.3044666198,2.6963328218,0.4280505554\C,0.3341831439,3.4
 439225941,0.2759731981\C,1.6870644439,3.5860032777,-0.0231512193\H,-0.
 2955685607,4.3169856452,0.4522163996\H,2.1331064979,4.5808389779,-0.07
 78274677\O,-0.8744683749,-1.6192201586,2.9636263429\H,-3.4180362127,1.
 5388948452,-1.6920601748\H,-3.3316983763,-0.2042159869,-2.1103332889\H
 ,-1.881692012,0.8027009443,-2.3321501811\H,-3.4398356469,-0.3310705011
 ,1.9662016838\H,-4.1936726556,-1.0088646989,0.5029843249\H,-4.40553522
 18,0.7343840583,0.8798871394\H,2.0473092723,-3.3376828134,0.0361880548
 \H,3.4970893073,-2.5416267292,-0.6612170857\H,1.9079860682,-2.50833028
 3,-1.534137224\H,2.2473052805,-0.3116279966,2.0105049253\H,3.642369081
 5,-1.323626537,1.4955022504\H,2.1157216832,-2.0851270304,2.0648264702\
 Ru,-0.2329008023,-0.9053813995,0.1145613793\H,-1.0087036029,-2.1483729
 191,-2.4871755059\\Version=ES64L-G16RevA.03\HF=-1239.8379029,-1239.835
 1894,-1239.8286524,-1239.8137537,-1239.7779845,-1239.786288\S2=0.75783
 2,0.757077,0.758679,0.760009,0.758931,0.755837\S2-1=0.,0.,0.,0.,0.,0.\
 S2A=0.750046,0.75004,0.750058,0.750076,0.750063,0.750028\RMSD=7.089e-0
 9,3.320e-09,7.829e-09,4.116e-09,9.000e-09,5.145e-09\PG=C01 [X(C12H20N2
 O3P1Ru1)]\\@


 HIGGLEDY-PIGGLEDY
 NIC'LAUS COPERNICUS
 LOOKED AT THE UNIVERSE,
 SPOKE TO THE THRONG;
 GIVE UP YOUR PTOLOMY,
 RISE UP AND FOLLOW ME,
 HELIOCENTRICALLY
 PTOLEMY'S WRONG.
   -- NANCY L. STARK
 Job cpu time:       4 days  4 hours 19 minutes 29.1 seconds.
 Elapsed time:       0 days  5 hours  1 minutes 46.2 seconds.
 File lengths (MBytes):  RWF=    173 Int=      0 D2E=      0 Chk=     21 Scr=      1
 Normal termination of Gaussian 16 at Tue Jun 30 01:02:39 2020.
