 Entering Gaussian System, Link 0=g16
 Initial command:
 /cluster/chemistry/gaussian/g16/l1.exe "/scratch/js1212.752394/scratch/Gau-28490.inp" -scrdir="/scratch/js1212.752394/scratch/"
 Entering Link 1 = /cluster/chemistry/gaussian/g16/l1.exe PID=     28491.
  
 Copyright (c) 1988,1990,1992,1993,1995,1998,2003,2009,2016,
            Gaussian, Inc.  All Rights Reserved.
  
 This is part of the Gaussian(R) 16 program.  It is based on
 the Gaussian(R) 09 system (copyright 2009, Gaussian, Inc.),
 the Gaussian(R) 03 system (copyright 2003, Gaussian, Inc.),
 the Gaussian(R) 98 system (copyright 1998, Gaussian, Inc.),
 the Gaussian(R) 94 system (copyright 1995, Gaussian, Inc.),
 the Gaussian 92(TM) system (copyright 1992, Gaussian, Inc.),
 the Gaussian 90(TM) system (copyright 1990, Gaussian, Inc.),
 the Gaussian 88(TM) system (copyright 1988, Gaussian, Inc.),
 the Gaussian 86(TM) system (copyright 1986, Carnegie Mellon
 University), and the Gaussian 82(TM) system (copyright 1983,
 Carnegie Mellon University). Gaussian is a federally registered
 trademark of Gaussian, Inc.
  
 This software contains proprietary and confidential information,
 including trade secrets, belonging to Gaussian, Inc.
  
 This software is provided under written license and may be
 used, copied, transmitted, or stored only in accord with that
 written license.
  
 The following legend is applicable only to US Government
 contracts under FAR:
  
                    RESTRICTED RIGHTS LEGEND
  
 Use, reproduction and disclosure by the US Government is
 subject to restrictions as set forth in subparagraphs (a)
 and (c) of the Commercial Computer Software - Restricted
 Rights clause in FAR 52.227-19.
  
 Gaussian, Inc.
 340 Quinnipiac St., Bldg. 40, Wallingford CT 06492
  
  
 ---------------------------------------------------------------
 Warning -- This program may not be used in any manner that
 competes with the business of Gaussian, Inc. or will provide
 assistance to any competitor of Gaussian, Inc.  The licensee
 of this program is prohibited from giving any competitor of
 Gaussian, Inc. access to this program.  By using this program,
 the user acknowledges that Gaussian, Inc. is engaged in the
 business of creating and licensing software in the field of
 computational chemistry and represents and warrants to the
 licensee that it is not a competitor of Gaussian, Inc. and that
 it will not use this program in any manner prohibited above.
 ---------------------------------------------------------------
  

 Cite this work as:
 Gaussian 16, Revision A.03,
 M. J. Frisch, G. W. Trucks, H. B. Schlegel, G. E. Scuseria, 
 M. A. Robb, J. R. Cheeseman, G. Scalmani, V. Barone, 
 G. A. Petersson, H. Nakatsuji, X. Li, M. Caricato, A. V. Marenich, 
 J. Bloino, B. G. Janesko, R. Gomperts, B. Mennucci, H. P. Hratchian, 
 J. V. Ortiz, A. F. Izmaylov, J. L. Sonnenberg, D. Williams-Young, 
 F. Ding, F. Lipparini, F. Egidi, J. Goings, B. Peng, A. Petrone, 
 T. Henderson, D. Ranasinghe, V. G. Zakrzewski, J. Gao, N. Rega, 
 G. Zheng, W. Liang, M. Hada, M. Ehara, K. Toyota, R. Fukuda, 
 J. Hasegawa, M. Ishida, T. Nakajima, Y. Honda, O. Kitao, H. Nakai, 
 T. Vreven, K. Throssell, J. A. Montgomery, Jr., J. E. Peralta, 
 F. Ogliaro, M. J. Bearpark, J. J. Heyd, E. N. Brothers, K. N. Kudin, 
 V. N. Staroverov, T. A. Keith, R. Kobayashi, J. Normand, 
 K. Raghavachari, A. P. Rendell, J. C. Burant, S. S. Iyengar, 
 J. Tomasi, M. Cossi, J. M. Millam, M. Klene, C. Adamo, R. Cammi, 
 J. W. Ochterski, R. L. Martin, K. Morokuma, O. Farkas, 
 J. B. Foresman, and D. J. Fox, Gaussian, Inc., Wallingford CT, 2016.
 
 ******************************************
 Gaussian 16:  ES64L-G16RevA.03 25-Dec-2016
                29-Jun-2020 
 ******************************************
 %rwf=/scratch/js1212.752394/GMe-Cis-Mono-D-0-GP-TD-SMD.rwf
 %nosave
 %nprocshared=20
 Will use up to   20 processors via shared memory.
 %mem=3000MB
 %oldchk=/data/js1212/200629_g16/GMe-Cis-Mono-D-0-GPOF.chk
 %chk=/scratch/js1212.752394/GMe-Cis-Mono-D-0-GP-TD-SMD.chk
 Copying data from "/data/js1212/200629_g16/GMe-Cis-Mono-D-0-GPOF.chk" to current chk file "/scratch/js1212.752394/GMe-Cis-Mono-D-0-GP-TD-SMD.chk"
 IOpt=  2 FromEx=T IUOpen= 4 IOptOp= 5 NList=   0 IFRang= 0 IUIn= 4 IUOut= 2.
 ----------------------------------------------------------------------
 # genecp pbe1pbe EmpiricalDispersion=GD3BJ scrf=(SMD,solvent=water) td
 =nstates=25 geom=allcheck
 ----------------------------------------------------------------------
 1/29=7,38=1,172=1/1;
 2/12=2,40=1/2;
 3/5=7,11=9,14=-4,16=1,17=8,25=1,30=1,70=32201,72=1,74=-13,124=41/1,2,3,8;
 4//1;
 5/5=2,38=5,53=1/2;
 8/6=1,10=1,108=25/1;
 9/41=25,42=1,70=2/14;
 6/7=2,8=2,9=2,10=2/1;
 99/5=1,9=1/99;
 Structure from the checkpoint file:  "/scratch/js1212.752394/GMe-Cis-Mono-D-0-GP-TD-SMD.chk"
 -------------------
 Title Card Required
 -------------------
 Charge =  0 Multiplicity = 2
 Redundant internal coordinates found in file.  (old form).
 O,0,-0.5796653818,-2.7585529562,-0.451215585
 O,0,0.1248173968,-0.5268376468,-2.0099633455
 C,0,2.3150289021,-2.3506677327,-0.9319652376
 H,0,2.3304684256,-0.0122999733,-1.7268061185
 N,0,2.0264558335,-1.202582386,-0.0671971291
 C,0,2.568047091,0.035146358,-0.650398959
 C,0,-2.6474842072,0.7505484487,-1.9403049729
 C,0,-3.6811597264,-0.1937090003,0.5901631637
 P,0,-2.1296807025,0.2835230083,-0.2558129652
 H,0,3.6639856477,0.1011576617,-0.5226412974
 C,0,2.5627350358,-1.4184778035,1.2754501675
 C,0,-0.4853502923,-1.0725297045,1.7518465157
 C,0,1.8829077266,1.2696631795,-0.1340384921
 N,0,0.5654728802,1.124330342,0.1140685351
 C,0,-1.6734116636,1.8944567241,0.5960135026
 C,0,-0.2160866262,2.1898213963,0.3900010645
 C,0,2.4912962463,2.5148236574,-0.0351578638
 H,0,3.561764516,2.612333048,-0.219648147
 H,0,-1.8533849788,1.7068622474,1.6697837884
 H,0,-2.3030080805,2.7480678164,0.3012548446
 C,0,0.3389863996,3.4650382776,0.4672312242
 C,0,1.7077937101,3.6253536158,0.2714981914
 H,0,-0.3006503032,4.3209019403,0.6852965546
 H,0,2.1609002959,4.615390945,0.3450886523
 O,0,-0.7403080944,-1.2524167364,2.8705588169
 H,0,-3.4133389269,1.5399405136,-1.9310846729
 H,0,-3.0372876584,-0.1518180015,-2.4330745689
 H,0,-1.7445124959,1.0516855945,-2.4881667592
 H,0,-3.4609690382,-0.4237734461,1.6424055327
 H,0,-4.0657612042,-1.1052587731,0.109801071
 H,0,-4.4435762128,0.59766911,0.5305771572
 H,0,1.817166546,-3.2304970238,-0.5062361994
 H,0,3.4056683064,-2.512718812,-1.0219157951
 H,0,1.8589037063,-2.1524941286,-1.9103460364
 H,0,2.3452062847,-0.5464988385,1.9083034301
 H,0,3.6578781252,-1.5781969959,1.2446602405
 H,0,2.0807678716,-2.3007948236,1.7152184799
 Ru,0,-0.1760561748,-0.7893514793,-0.0696738804
 H,0,-1.3310891793,-3.0629076224,0.0702470927
 Recover connectivity data from disk.
                           ----------------------------
                           !    Current Parameters    !
                           ! (Angstroms and Degrees)  !
 --------------------------                            --------------------------
 ! Name  Definition              Value                                          !
 --------------------------------------------------------------------------------
 ! R1    R(1,38)                 2.046                                          !
 ! R2    R(1,39)                 0.9639                                         !
 ! R3    R(2,38)                 1.9809                                         !
 ! R4    R(3,5)                  1.466                                          !
 ! R5    R(3,32)                 1.0969                                         !
 ! R6    R(3,33)                 1.1063                                         !
 ! R7    R(3,34)                 1.0975                                         !
 ! R8    R(4,6)                  1.1033                                         !
 ! R9    R(5,6)                  1.4715                                         !
 ! R10   R(5,11)                 1.4618                                         !
 ! R11   R(5,38)                 2.2409                                         !
 ! R12   R(6,10)                 1.1053                                         !
 ! R13   R(6,13)                 1.5034                                         !
 ! R14   R(7,9)                  1.8231                                         !
 ! R15   R(7,26)                 1.0999                                         !
 ! R16   R(7,27)                 1.0996                                         !
 ! R17   R(7,28)                 1.0983                                         !
 ! R18   R(8,9)                  1.8304                                         !
 ! R19   R(8,29)                 1.0994                                         !
 ! R20   R(8,30)                 1.0998                                         !
 ! R21   R(8,31)                 1.1005                                         !
 ! R22   R(9,15)                 1.8785                                         !
 ! R23   R(9,38)                 2.2366                                         !
 ! R24   R(11,35)                1.0992                                         !
 ! R25   R(11,36)                1.1072                                         !
 ! R26   R(11,37)                1.0973                                         !
 ! R27   R(12,25)                1.1614                                         !
 ! R28   R(12,38)                1.8692                                         !
 ! R29   R(13,14)                1.3484                                         !
 ! R30   R(13,17)                1.3894                                         !
 ! R31   R(14,16)                1.3499                                         !
 ! R32   R(14,38)                2.0605                                         !
 ! R33   R(15,16)                1.5012                                         !
 ! R34   R(15,19)                1.1048                                         !
 ! R35   R(15,20)                1.1009                                         !
 ! R36   R(16,21)                1.3929                                         !
 ! R37   R(17,18)                1.0906                                         !
 ! R38   R(17,22)                1.3933                                         !
 ! R39   R(21,22)                1.392                                          !
 ! R40   R(21,23)                1.0905                                         !
 ! R41   R(22,24)                1.0913                                         !
 ! A1    A(38,1,39)            110.9024                                         !
 ! A2    A(5,3,32)             108.0512                                         !
 ! A3    A(5,3,33)             110.9                                            !
 ! A4    A(5,3,34)             107.6157                                         !
 ! A5    A(32,3,33)            111.1939                                         !
 ! A6    A(32,3,34)            107.589                                          !
 ! A7    A(33,3,34)            111.3269                                         !
 ! A8    A(3,5,6)              110.6389                                         !
 ! A9    A(3,5,11)             110.727                                          !
 ! A10   A(3,5,38)             109.7079                                         !
 ! A11   A(6,5,11)             110.6842                                         !
 ! A12   A(6,5,38)             101.8994                                         !
 ! A13   A(11,5,38)            112.8808                                         !
 ! A14   A(4,6,5)              105.7374                                         !
 ! A15   A(4,6,10)             109.1977                                         !
 ! A16   A(4,6,13)             105.7993                                         !
 ! A17   A(5,6,10)             111.675                                          !
 ! A18   A(5,6,13)             112.7582                                         !
 ! A19   A(10,6,13)            111.2923                                         !
 ! A20   A(9,7,26)             111.9546                                         !
 ! A21   A(9,7,27)             107.7302                                         !
 ! A22   A(9,7,28)             107.3156                                         !
 ! A23   A(26,7,27)            110.2368                                         !
 ! A24   A(26,7,28)            112.326                                          !
 ! A25   A(27,7,28)            107.0335                                         !
 ! A26   A(9,8,29)             109.0961                                         !
 ! A27   A(9,8,30)             108.0973                                         !
 ! A28   A(9,8,31)             112.0056                                         !
 ! A29   A(29,8,30)            108.3388                                         !
 ! A30   A(29,8,31)            109.9418                                         !
 ! A31   A(30,8,31)            109.2746                                         !
 ! A32   A(7,9,8)              104.6599                                         !
 ! A33   A(7,9,15)             105.562                                          !
 ! A34   A(7,9,38)             116.6068                                         !
 ! A35   A(8,9,15)             102.7018                                         !
 ! A36   A(8,9,38)             125.2281                                         !
 ! A37   A(15,9,38)             99.2919                                         !
 ! A38   A(5,11,35)            109.8193                                         !
 ! A39   A(5,11,36)            111.0167                                         !
 ! A40   A(5,11,37)            109.0084                                         !
 ! A41   A(35,11,36)           109.0389                                         !
 ! A42   A(35,11,37)           108.6748                                         !
 ! A43   A(36,11,37)           109.2444                                         !
 ! A44   A(6,13,14)            114.8315                                         !
 ! A45   A(6,13,17)            124.1128                                         !
 ! A46   A(14,13,17)           120.7514                                         !
 ! A47   A(13,14,16)           121.2114                                         !
 ! A48   A(13,14,38)           115.8034                                         !
 ! A49   A(16,14,38)           122.883                                          !
 ! A50   A(9,15,16)            110.0166                                         !
 ! A51   A(9,15,19)            104.8056                                         !
 ! A52   A(9,15,20)            113.8672                                         !
 ! A53   A(16,15,19)           108.9618                                         !
 ! A54   A(16,15,20)           111.4628                                         !
 ! A55   A(19,15,20)           107.3813                                         !
 ! A56   A(14,16,15)           115.7737                                         !
 ! A57   A(14,16,21)           120.2134                                         !
 ! A58   A(15,16,21)           124.0129                                         !
 ! A59   A(13,17,18)           119.8603                                         !
 ! A60   A(13,17,22)           118.9311                                         !
 ! A61   A(18,17,22)           121.1934                                         !
 ! A62   A(16,21,22)           119.3075                                         !
 ! A63   A(16,21,23)           119.7266                                         !
 ! A64   A(22,21,23)           120.9649                                         !
 ! A65   A(17,22,21)           119.4809                                         !
 ! A66   A(17,22,24)           120.2963                                         !
 ! A67   A(21,22,24)           120.2181                                         !
 ! A68   A(1,38,2)              88.559                                          !
 ! A69   A(1,38,5)              90.9518                                         !
 ! A70   A(1,38,9)             105.8936                                         !
 ! A71   A(1,38,12)             90.1875                                         !
 ! A72   A(2,38,5)              82.8909                                         !
 ! A73   A(2,38,9)              89.2885                                         !
 ! A74   A(2,38,14)             84.8139                                         !
 ! A75   A(5,38,9)             161.2712                                         !
 ! A76   A(5,38,12)             97.6788                                         !
 ! A77   A(5,38,14)             79.4822                                         !
 ! A78   A(9,38,12)             90.5294                                         !
 ! A79   A(9,38,14)             82.892                                          !
 ! A80   A(12,38,14)            96.5086                                         !
 ! A81   L(25,12,38,8,-1)      176.9648                                         !
 ! A82   L(1,38,14,2,-1)       173.3729                                         !
 ! A83   L(2,38,12,1,-1)       178.7466                                         !
 ! A84   L(25,12,38,8,-2)      180.9306                                         !
 ! A85   L(1,38,14,2,-2)       188.8458                                         !
 ! A86   L(2,38,12,1,-2)       180.5466                                         !
 ! D1    D(39,1,38,2)         -138.4656                                         !
 ! D2    D(39,1,38,5)          138.6709                                         !
 ! D3    D(39,1,38,9)          -49.616                                          !
 ! D4    D(39,1,38,12)          40.9878                                         !
 ! D5    D(32,3,5,6)          -174.9464                                         !
 ! D6    D(32,3,5,11)           61.9546                                         !
 ! D7    D(32,3,5,38)          -63.2948                                         !
 ! D8    D(33,3,5,6)            62.9485                                         !
 ! D9    D(33,3,5,11)          -60.1505                                         !
 ! D10   D(33,3,5,38)          174.6001                                         !
 ! D11   D(34,3,5,6)           -59.0371                                         !
 ! D12   D(34,3,5,11)          177.864                                          !
 ! D13   D(34,3,5,38)           52.6145                                         !
 ! D14   D(3,5,6,4)             42.6619                                         !
 ! D15   D(3,5,6,10)           -75.9989                                         !
 ! D16   D(3,5,6,13)           157.8105                                         !
 ! D17   D(11,5,6,4)           165.7857                                         !
 ! D18   D(11,5,6,10)           47.1249                                         !
 ! D19   D(11,5,6,13)          -79.0658                                         !
 ! D20   D(38,5,6,4)           -73.93                                           !
 ! D21   D(38,5,6,10)          167.4091                                         !
 ! D22   D(38,5,6,13)           41.2185                                         !
 ! D23   D(3,5,11,35)          179.5551                                         !
 ! D24   D(3,5,11,36)           58.8962                                         !
 ! D25   D(3,5,11,37)          -61.4886                                         !
 ! D26   D(6,5,11,35)           56.4824                                         !
 ! D27   D(6,5,11,36)          -64.1766                                         !
 ! D28   D(6,5,11,37)          175.4387                                         !
 ! D29   D(38,5,11,35)         -57.0058                                         !
 ! D30   D(38,5,11,36)        -177.6647                                         !
 ! D31   D(38,5,11,37)          61.9506                                         !
 ! D32   D(3,5,38,1)            28.0795                                         !
 ! D33   D(3,5,38,2)           -60.3494                                         !
 ! D34   D(3,5,38,9)          -126.3437                                         !
 ! D35   D(3,5,38,12)          118.3971                                         !
 ! D36   D(3,5,38,14)         -146.3645                                         !
 ! D37   D(6,5,38,1)           145.3448                                         !
 ! D38   D(6,5,38,2)            56.916                                          !
 ! D39   D(6,5,38,9)            -9.0784                                         !
 ! D40   D(6,5,38,12)         -124.3376                                         !
 ! D41   D(6,5,38,14)          -29.0992                                         !
 ! D42   D(11,5,38,1)          -95.922                                          !
 ! D43   D(11,5,38,2)          175.6492                                         !
 ! D44   D(11,5,38,9)          109.6548                                         !
 ! D45   D(11,5,38,12)          -5.6044                                         !
 ! D46   D(11,5,38,14)          89.634                                          !
 ! D47   D(4,6,13,14)           80.1195                                         !
 ! D48   D(4,6,13,17)          -93.5672                                         !
 ! D49   D(5,6,13,14)          -34.9918                                         !
 ! D50   D(5,6,13,17)          151.3215                                         !
 ! D51   D(10,6,13,14)        -161.3875                                         !
 ! D52   D(10,6,13,17)          24.9258                                         !
 ! D53   D(26,7,9,8)            56.0152                                         !
 ! D54   D(26,7,9,15)          -51.9704                                         !
 ! D55   D(26,7,9,38)         -161.0547                                         !
 ! D56   D(27,7,9,8)           -65.3457                                         !
 ! D57   D(27,7,9,15)         -173.3312                                         !
 ! D58   D(27,7,9,38)           77.5845                                         !
 ! D59   D(28,7,9,8)           179.7049                                         !
 ! D60   D(28,7,9,15)           71.7194                                         !
 ! D61   D(28,7,9,38)          -37.3649                                         !
 ! D62   D(29,8,9,7)          -176.061                                          !
 ! D63   D(29,8,9,15)          -65.9874                                         !
 ! D64   D(29,8,9,38)           45.2225                                         !
 ! D65   D(30,8,9,7)            66.3306                                         !
 ! D66   D(30,8,9,15)          176.4043                                         !
 ! D67   D(30,8,9,38)          -72.3859                                         !
 ! D68   D(31,8,9,7)           -54.1094                                         !
 ! D69   D(31,8,9,15)           55.9642                                         !
 ! D70   D(31,8,9,38)          167.1741                                         !
 ! D71   D(7,9,15,16)          -90.4237                                         !
 ! D72   D(7,9,15,19)          152.5761                                         !
 ! D73   D(7,9,15,20)           35.5221                                         !
 ! D74   D(8,9,15,16)          160.1817                                         !
 ! D75   D(8,9,15,19)           43.1815                                         !
 ! D76   D(8,9,15,20)          -73.8725                                         !
 ! D77   D(38,9,15,16)          30.6844                                         !
 ! D78   D(38,9,15,19)         -86.3159                                         !
 ! D79   D(38,9,15,20)         156.6302                                         !
 ! D80   D(7,9,38,1)           -83.0249                                         !
 ! D81   D(7,9,38,2)             5.274                                          !
 ! D82   D(7,9,38,5)            70.3072                                         !
 ! D83   D(7,9,38,12)         -173.3707                                         !
 ! D84   D(7,9,38,14)           90.1363                                         !
 ! D85   D(8,9,38,1)            51.4213                                         !
 ! D86   D(8,9,38,2)           139.7203                                         !
 ! D87   D(8,9,38,5)          -155.2466                                         !
 ! D88   D(8,9,38,12)          -38.9244                                         !
 ! D89   D(8,9,38,14)         -135.4175                                         !
 ! D90   D(15,9,38,1)          164.2692                                         !
 ! D91   D(15,9,38,2)         -107.4319                                         !
 ! D92   D(15,9,38,5)          -42.3987                                         !
 ! D93   D(15,9,38,12)          73.9234                                         !
 ! D94   D(15,9,38,14)         -22.5696                                         !
 ! D95   D(6,13,14,16)        -170.0918                                         !
 ! D96   D(6,13,14,38)           6.3354                                         !
 ! D97   D(17,13,14,16)          3.8269                                         !
 ! D98   D(17,13,14,38)       -179.7459                                         !
 ! D99   D(6,13,17,18)          -7.8853                                         !
 ! D100  D(6,13,17,22)         170.7134                                         !
 ! D101  D(14,13,17,18)        178.7833                                         !
 ! D102  D(14,13,17,22)         -2.618                                          !
 ! D103  D(13,14,16,15)        177.7939                                         !
 ! D104  D(13,14,16,21)         -2.1372                                         !
 ! D105  D(38,14,16,15)          1.6245                                         !
 ! D106  D(38,14,16,21)       -178.3066                                         !
 ! D107  D(13,14,38,2)         -70.2116                                         !
 ! D108  D(13,14,38,5)          13.4996                                         !
 ! D109  D(13,14,38,9)        -160.1401                                         !
 ! D110  D(13,14,38,12)        110.138                                          !
 ! D111  D(16,14,38,2)         106.1497                                         !
 ! D112  D(16,14,38,5)        -170.1392                                         !
 ! D113  D(16,14,38,9)          16.2211                                         !
 ! D114  D(16,14,38,12)        -73.5007                                         !
 ! D115  D(9,15,16,14)         -23.1882                                         !
 ! D116  D(9,15,16,21)         156.74                                           !
 ! D117  D(19,15,16,14)         91.189                                          !
 ! D118  D(19,15,16,21)        -88.8829                                         !
 ! D119  D(20,15,16,14)       -150.485                                          !
 ! D120  D(20,15,16,21)         29.4431                                         !
 ! D121  D(14,16,21,22)         -0.6955                                         !
 ! D122  D(14,16,21,23)        179.6694                                         !
 ! D123  D(15,16,21,22)        179.3794                                         !
 ! D124  D(15,16,21,23)         -0.2557                                         !
 ! D125  D(13,17,22,21)         -0.1904                                         !
 ! D126  D(13,17,22,24)       -179.4028                                         !
 ! D127  D(18,17,22,21)        178.389                                          !
 ! D128  D(18,17,22,24)         -0.8234                                         !
 ! D129  D(16,21,22,17)          1.8072                                         !
 ! D130  D(16,21,22,24)       -178.9798                                         !
 ! D131  D(23,21,22,17)       -178.5624                                         !
 ! D132  D(23,21,22,24)          0.6507                                         !
 --------------------------------------------------------------------------------
                          Input orientation:                          
 ---------------------------------------------------------------------
 Center     Atomic      Atomic             Coordinates (Angstroms)
 Number     Number       Type             X           Y           Z
 ---------------------------------------------------------------------
      1          8           0       -0.579665   -2.758553   -0.451216
      2          8           0        0.124817   -0.526838   -2.009963
      3          6           0        2.315029   -2.350668   -0.931965
      4          1           0        2.330468   -0.012300   -1.726806
      5          7           0        2.026456   -1.202582   -0.067197
      6          6           0        2.568047    0.035146   -0.650399
      7          6           0       -2.647484    0.750548   -1.940305
      8          6           0       -3.681160   -0.193709    0.590163
      9         15           0       -2.129681    0.283523   -0.255813
     10          1           0        3.663986    0.101158   -0.522641
     11          6           0        2.562735   -1.418478    1.275450
     12          6           0       -0.485350   -1.072530    1.751847
     13          6           0        1.882908    1.269663   -0.134038
     14          7           0        0.565473    1.124330    0.114069
     15          6           0       -1.673412    1.894457    0.596014
     16          6           0       -0.216087    2.189821    0.390001
     17          6           0        2.491296    2.514824   -0.035158
     18          1           0        3.561765    2.612333   -0.219648
     19          1           0       -1.853385    1.706862    1.669784
     20          1           0       -2.303008    2.748068    0.301255
     21          6           0        0.338986    3.465038    0.467231
     22          6           0        1.707794    3.625354    0.271498
     23          1           0       -0.300650    4.320902    0.685297
     24          1           0        2.160900    4.615391    0.345089
     25          8           0       -0.740308   -1.252417    2.870559
     26          1           0       -3.413339    1.539941   -1.931085
     27          1           0       -3.037288   -0.151818   -2.433075
     28          1           0       -1.744512    1.051686   -2.488167
     29          1           0       -3.460969   -0.423773    1.642406
     30          1           0       -4.065761   -1.105259    0.109801
     31          1           0       -4.443576    0.597669    0.530577
     32          1           0        1.817167   -3.230497   -0.506236
     33          1           0        3.405668   -2.512719   -1.021916
     34          1           0        1.858904   -2.152494   -1.910346
     35          1           0        2.345206   -0.546499    1.908303
     36          1           0        3.657878   -1.578197    1.244660
     37          1           0        2.080768   -2.300795    1.715218
     38         44           0       -0.176056   -0.789351   -0.069674
     39          1           0       -1.331089   -3.062908    0.070247
 ---------------------------------------------------------------------
                    Distance matrix (angstroms):
                    1          2          3          4          5
     1  O    0.000000
     2  O    2.811858   0.000000
     3  C    2.962557   3.047206   0.000000
     4  H    4.199752   2.282504   2.469813   0.000000
     5  N    3.059474   2.801285   1.466014   2.064824   0.000000
     6  C    4.213374   2.851949   2.415659   1.103335   1.471536
     7  C    4.336710   3.053232   5.938083   5.040588   5.400830
     8  C    4.157182   4.621374   6.551612   6.445225   5.833252
     9  P    3.419789   2.969257   5.210718   4.705769   4.417868
    10  H    5.117775   3.890015   2.828193   1.800320   2.142118
    11  C    3.827774   4.187172   2.408946   3.323376   1.461817
    12  C    2.775798   3.849844   4.083945   4.599342   3.104030
    13  C    4.731954   3.136462   3.732320   2.093000   2.477311
    14  N    4.087502   2.726178   4.028740   2.792124   2.753516
    15  C    4.893206   3.985901   6.021915   5.006223   4.870372
    16  C    5.032519   3.640918   5.363784   3.976827   4.092240
    17  C    6.116569   4.330333   4.950590   3.045307   3.746493
    18  H    6.786124   4.987206   5.166539   3.267463   4.115093
    19  H    5.104991   4.737430   6.372466   5.656587   5.151227
    20  H    5.818848   4.686264   6.988863   5.762097   5.872619
    21  C    6.357716   4.702918   6.299598   4.568554   4.991979
    22  C    6.819754   4.995155   6.126164   4.196840   4.850281
    23  H    7.175527   5.562915   7.346234   5.614059   6.040741
    24  H    7.906949   6.011191   7.083826   5.073167   5.834112
    25  O    3.650813   5.009431   5.000043   5.665979   4.035824
    26  H    5.356936   4.098334   6.996376   5.953361   6.370783
    27  H    4.094232   3.212253   5.977923   5.415818   5.687089
    28  H    4.474814   2.492952   5.520656   4.279860   5.016276
    29  H    4.258680   5.119403   6.610784   6.712797   5.800096
    30  H    3.898844   4.731693   6.584133   6.743844   6.095565
    31  H    5.211329   5.346876   7.517344   7.166277   6.742370
    32  H    2.443473   3.526332   1.096910   3.479951   2.085424
    33  H    4.033487   3.960296   1.106276   2.811587   2.128420
    34  H    2.905682   2.379020   1.097521   2.199202   2.080289
    35  H    4.360664   4.503702   3.364976   3.674181   2.105861
    36  H    4.714447   4.917362   2.671639   3.611601   2.126874
    37  H    3.461341   4.566141   2.657997   4.140905   2.094284
    38  Ru   2.046028   1.980950   3.063782   3.103637   2.240943
    39  H    0.963946   3.588675   3.847843   5.093389   3.840939
                    6          7          8          9         10
     6  C    0.000000
     7  C    5.420095   0.000000
     8  C    6.375261   2.891950   0.000000
     9  P    4.720809   1.823115   1.830441   0.000000
    10  H    1.105333   6.501241   7.434813   5.802674   0.000000
    11  C    2.412871   6.495548   6.399680   5.221143   2.599072
    12  C    4.039921   4.650851   3.512126   2.928037   4.875226
    13  C    1.503355   4.904746   5.798687   4.133784   2.165330
    14  N    2.404378   3.831874   4.471888   2.847389   3.324615
    15  C    4.795889   2.947924   2.896812   1.878536   5.740655
    16  C    3.671029   3.662448   4.210465   2.777209   4.500044
    17  C    2.556015   5.757544   6.769519   5.136226   2.727384
    18  H    2.795516   6.706838   7.809585   6.149570   2.531453
    19  H    5.265638   3.818098   2.849300   2.410427   6.150317
    20  H    5.656215   3.022141   3.261414   2.532656   6.579510
    21  C    4.240515   4.699329   5.437198   4.091351   4.832304
    22  C    3.805196   5.667894   6.612685   5.115867   4.108199
    23  H    5.327402   5.014862   5.640798   4.531166   5.914702
    24  H    4.704828   6.578799   7.570810   6.126602   4.836375
    25  O    5.000018   5.549198   3.869066   3.750156   5.722218
    26  H    6.299329   1.099890   3.071475   2.456196   7.358147
    27  H    5.884952   1.099561   3.091325   2.398696   6.972863
    28  H    4.796761   1.098269   3.844181   2.392035   5.832551
    29  H    6.466575   3.857020   1.099376   2.424011   7.465116
    30  H    6.773909   3.107807   1.099813   2.410559   7.848848
    31  H    7.132601   3.058525   1.100504   2.463982   8.190748
    32  H    3.353958   6.151291   6.376187   5.290430   3.809322
    33  H    2.707628   6.937796   7.628875   6.248678   2.673640
    34  H    2.622236   5.360605   6.386054   4.957869   3.203590
    35  H    2.633425   6.435921   6.178919   5.039539   2.840445
    36  H    2.716957   7.438054   7.497109   6.262049   2.437955
    37  H    3.360090   6.710433   6.237417   5.318979   3.644718
    38  Ru   2.923549   3.460998   3.616065   2.236595   3.967884
    39  H    5.031951   4.507512   3.745056   3.455816   5.942525
                   11         12         13         14         15
    11  C    0.000000
    12  C    3.104426   0.000000
    13  C    3.110454   3.827672   0.000000
    14  N    3.435657   2.934747   1.348448   0.000000
    15  C    5.420527   3.398595   3.683850   2.416189   0.000000
    16  C    4.639579   3.545428   2.350976   1.349906   1.501159
    17  C    4.146524   4.992285   1.389366   2.380029   4.257702
    18  H    4.413708   5.817572   2.151430   3.362035   5.346749
    19  H    5.424515   3.098915   4.171906   2.934360   1.104792
    20  H    6.479554   4.472702   4.460611   3.301476   1.100875
    21  C    5.426509   4.787410   2.750435   2.378010   2.555985
    22  C    5.213356   5.391792   2.396748   2.754051   3.812331
    23  H    6.441097   5.500977   3.840481   3.360735   2.789280
    24  H    6.118383   6.429156   3.391274   3.845291   4.708332
    25  O    3.671790   1.161413   4.719084   3.866811   3.993376
    26  H    7.399160   5.381645   5.599344   4.492920   3.088568
    27  H    6.835045   4.987350   5.613778   4.593079   3.901637
    28  H    6.230482   4.906678   4.329851   3.480365   3.198044
    29  H    6.116298   3.047486   5.880519   4.576535   3.108776
    30  H    6.737493   3.939128   6.409865   5.139982   3.867561
    31  H    7.328580   4.466387   6.396694   5.053852   3.059371
    32  H    2.648338   3.880379   4.516004   4.573405   6.297955
    33  H    2.680632   4.990784   4.172953   4.752399   6.916498
    34  H    3.344167   4.480346   3.855776   4.063102   5.927639
    35  H    1.099168   2.883269   2.771881   3.029587   4.881563
    36  H    1.107157   4.204673   3.627897   4.259679   6.395523
    37  H    1.097348   2.845161   4.025801   4.073240   5.739915
    38  Ru   3.115467   1.869168   2.912562   2.060535   3.144525
    39  H    4.395285   2.739463   5.398396   4.596937   4.996907
                   16         17         18         19         20
    16  C    0.000000
    17  C    2.759766   0.000000
    18  H    3.849980   1.090618   0.000000
    19  H    2.133504   4.736653   5.806348   0.000000
    20  H    2.162118   4.811749   5.889425   1.777397   0.000000
    21  C    1.392928   2.405772   3.403705   3.056764   2.742577
    22  C    2.403354   1.393266   2.169019   4.279931   4.105733
    23  H    2.153104   3.402343   4.319303   3.195842   2.575021
    24  H    3.396391   2.160123   2.508703   5.131164   4.838935
    25  O    4.275158   5.751396   6.556943   3.382031   5.004721
    26  H    4.004024   6.277711   7.261619   3.927795   2.770514
    27  H    4.627333   6.589858   7.489144   4.657227   4.052784
    28  H    3.451853   5.108826   5.978158   4.210661   3.312175
    29  H    4.350708   6.846827   7.874260   2.669210   3.633199
    30  H    5.075043   7.491396   8.491653   3.903355   4.241707
    31  H    4.519555   7.217201   8.288980   3.039275   3.042833
    32  H    5.858089   5.803885   6.104459   6.525759   7.305554
    33  H    6.101189   5.204416   5.189813   7.260010   7.875001
    34  H    5.334125   5.069527   5.334958   6.441510   6.799132
    35  H    4.043873   3.629060   3.998301   4.771027   5.919685
    36  H    5.471381   4.444285   4.440043   6.430114   7.425547
    37  H    5.215110   5.140285   5.484149   5.616132   6.834310
    38  Ru   3.014693   4.246591   5.056209   3.474223   4.144255
    39  H    5.379278   6.762605   7.498827   5.057867   5.896221
                   21         22         23         24         25
    21  C    0.000000
    22  C    1.391993   0.000000
    23  H    1.090500   2.165378   0.000000
    24  H    2.158147   1.091281   2.502338   0.000000
    25  O    5.403262   6.044912   6.002545   7.016137   0.000000
    26  H    4.851584   5.952001   4.926259   6.761028   6.164263
    27  H    5.735211   6.640598   6.100709   7.580609   5.883533
    28  H    4.347369   5.114483   4.779475   5.998298   5.918890
    29  H    5.562693   6.707528   5.780624   7.660393   3.097904
    30  H    6.357450   7.465841   6.629515   8.458871   4.324590
    31  H    5.576623   6.861002   5.572274   7.732762   4.755263
    32  H    6.925522   6.900690   7.932750   7.899422   4.675064
    33  H    6.881546   6.498587   7.959255   7.363973   5.824847
    34  H    6.286469   6.177929   7.301088   7.140200   5.515713
    35  H    4.711055   4.526564   5.673438   5.396547   3.308271
    36  H    6.087172   5.641526   7.126163   6.435115   4.700396
    37  H    6.151106   6.110865   7.111875   7.051050   3.223721
    38  Ru   4.318955   4.811955   5.167223   5.902934   3.029485
    39  H    6.749876   7.349024   7.480691   8.439538   3.386539
                   26         27         28         29         30
    26  H    0.000000
    27  H    1.804288   0.000000
    28  H    1.825846   1.767123   0.000000
    29  H    4.077778   4.106459   4.710077   0.000000
    30  H    3.404108   2.903967   4.097565   1.782995   0.000000
    31  H    2.830025   3.364909   4.074787   1.801395   1.794369
    32  H    7.221181   6.062730   5.911911   6.352407   6.285299
    33  H    7.984328   7.005491   6.432669   7.655913   7.686611
    34  H    6.436695   5.314945   4.856465   6.626580   6.346601
    35  H    7.228760   6.926368   6.213610   5.813556   6.681866
    36  H    8.355253   7.770813   7.073620   7.222803   7.820881
    37  H    7.630988   6.929713   6.598511   5.851441   6.464247
    38  Ru   4.401187   3.765469   3.420319   3.722300   3.906637
    39  H    5.433903   4.201449   4.862744   3.738061   3.363389
                   31         32         33         34         35
    31  H    0.000000
    32  H    7.411258   0.000000
    33  H    8.584602   1.817820   0.000000
    34  H    7.296763   1.770694   1.819767   0.000000
    35  H    7.021027   3.648654   3.684669   4.171066   0.000000
    36  H    8.418900   3.030504   2.464611   3.676981   1.796644
    37  H    7.236818   2.422538   3.048307   3.635373   1.784591
    38  Ru   4.527235   3.181621   4.087237   3.063869   3.213742
    39  H    4.826935   3.204986   4.892075   3.863633   4.819327
                   36         37         38         39
    36  H    0.000000
    37  H    1.797456   0.000000
    38  Ru   4.129020   3.250163   0.000000
    39  H    5.336048   3.863614   2.553965   0.000000
 Stoichiometry    C12H20N2O3PRu(2)
 Framework group  C1[X(C12H20N2O3PRu)]
 Deg. of freedom   111
 Full point group                 C1      NOp   1
 Largest Abelian subgroup         C1      NOp   1
 Largest concise Abelian subgroup C1      NOp   1
                         Standard orientation:                         
 ---------------------------------------------------------------------
 Center     Atomic      Atomic             Coordinates (Angstroms)
 Number     Number       Type             X           Y           Z
 ---------------------------------------------------------------------
      1          8           0       -0.555049   -2.764231   -0.447231
      2          8           0        0.125082   -0.539537   -2.026692
      3          6           0        2.334943   -2.330257   -0.933396
      4          1           0        2.325324    0.000789   -1.749547
      5          7           0        2.034705   -1.177431   -0.078968
      6          6           0        2.562922    0.060563   -0.673759
      7          6           0       -2.660503    0.709134   -1.967051
      8          6           0       -3.682907   -0.222827    0.572539
      9         15           0       -2.136968    0.262992   -0.278674
     10          1           0        3.658167    0.139288   -0.547257
     11          6           0        2.573897   -1.375394    1.265276
     12          6           0       -0.477431   -1.057265    1.740300
     13          6           0        1.865056    1.292451   -0.168278
     14          7           0        0.549351    1.135508    0.081925
     15          6           0       -1.697293    1.886356    0.558148
     16          6           0       -0.243267    2.195175    0.348587
     17          6           0        2.460326    2.544807   -0.081122
     18          1           0        3.529615    2.651908   -0.267128
     19          1           0       -1.874745    1.706685    1.633692
     20          1           0       -2.336004    2.730555    0.255986
     21          6           0        0.298363    3.476825    0.413850
     22          6           0        1.665306    3.649768    0.215853
     23          1           0       -0.350157    4.327853    0.624476
     24          1           0        2.107982    4.645158    0.280139
     25          8           0       -0.729922   -1.229609    2.860758
     26          1           0       -3.434637    1.490459   -1.964580
     27          1           0       -3.041012   -0.201753   -2.451336
     28          1           0       -1.761030    1.014760   -2.518172
     29          1           0       -3.459781   -0.440941    1.626706
     30          1           0       -4.058111   -1.142728    0.100741
     31          1           0       -4.453658    0.559892    0.506186
     32          1           0        1.846600   -3.211363   -0.499362
     33          1           0        3.427186   -2.481616   -1.022509
     34          1           0        1.876268   -2.145844   -1.913274
     35          1           0        2.347497   -0.500015    1.890276
     36          1           0        3.670649   -1.523833    1.235296
     37          1           0        2.101481   -2.258691    1.713361
     38         44           0       -0.172044   -0.787483   -0.083911
     39          1           0       -1.302962   -3.071718    0.077432
 ---------------------------------------------------------------------
 Rotational constants (GHZ):           0.3791227           0.3562906           0.2517951
 General basis read from cards:  (5D, 7F)
 ======================================================================================================
                                       Pseudopotential Parameters
 ======================================================================================================
  Center     Atomic      Valence      Angular      Power
  Number     Number     Electrons     Momentum     of R      Exponent        Coefficient   SO-Coeffient
 ======================================================================================================
    1          8
                                   No pseudopotential on this center.
    2          8
                                   No pseudopotential on this center.
    3          6
                                   No pseudopotential on this center.
    4          1
                                   No pseudopotential on this center.
    5          7
                                   No pseudopotential on this center.
    6          6
                                   No pseudopotential on this center.
    7          6
                                   No pseudopotential on this center.
    8          6
                                   No pseudopotential on this center.
    9         15
                                   No pseudopotential on this center.
   10          1
                                   No pseudopotential on this center.
   11          6
                                   No pseudopotential on this center.
   12          6
                                   No pseudopotential on this center.
   13          6
                                   No pseudopotential on this center.
   14          7
                                   No pseudopotential on this center.
   15          6
                                   No pseudopotential on this center.
   16          6
                                   No pseudopotential on this center.
   17          6
                                   No pseudopotential on this center.
   18          1
                                   No pseudopotential on this center.
   19          1
                                   No pseudopotential on this center.
   20          1
                                   No pseudopotential on this center.
   21          6
                                   No pseudopotential on this center.
   22          6
                                   No pseudopotential on this center.
   23          1
                                   No pseudopotential on this center.
   24          1
                                   No pseudopotential on this center.
   25          8
                                   No pseudopotential on this center.
   26          1
                                   No pseudopotential on this center.
   27          1
                                   No pseudopotential on this center.
   28          1
                                   No pseudopotential on this center.
   29          1
                                   No pseudopotential on this center.
   30          1
                                   No pseudopotential on this center.
   31          1
                                   No pseudopotential on this center.
   32          1
                                   No pseudopotential on this center.
   33          1
                                   No pseudopotential on this center.
   34          1
                                   No pseudopotential on this center.
   35          1
                                   No pseudopotential on this center.
   36          1
                                   No pseudopotential on this center.
   37          1
                                   No pseudopotential on this center.
   38         44           16
                                      G and up 
                                                     2        1.0000000        0.00000000    0.00000000
                                      S - G
                                                     2       11.1052690      209.82297100    0.00000000
                                                     2        5.4147450       30.65472600    0.00000000
                                      P - G
                                                     2        9.7712710      146.33618200    0.00000000
                                                     2        5.0739910       24.12787700    0.00000000
                                      D - G
                                                     2        7.6714230       67.51589700    0.00000000
                                                     2        4.1365650        9.87010400    0.00000000
                                      F - G
                                                     2       11.3600000      -28.34061600    0.00000000
                                                     2        5.6800000       -4.94462900    0.00000000
   39          1
                                   No pseudopotential on this center.
 ======================================================================================================
 There are   413 symmetry adapted cartesian basis functions of A   symmetry.
 There are   392 symmetry adapted basis functions of A   symmetry.
   392 basis functions,   837 primitive gaussians,   413 cartesian basis functions
    81 alpha electrons       80 beta electrons
       nuclear repulsion energy      1993.1664975712 Hartrees.
 NAtoms=   39 NActive=   39 NUniq=   39 SFac= 1.00D+00 NAtFMM=   60 NAOKFM=F Big=F
 Integral buffers will be    131072 words long.
 Regular integral format.
 Two-electron integral symmetry is turned on.
 Nuclear repulsion after empirical dispersion term =     1993.1111712204 Hartrees.
 ------------------------------------------------------------------------------
 Polarizable Continuum Model (PCM)
 =================================
 Model                : PCM.
 Atomic radii         : SMD-Coulomb.
 Polarization charges : Total charges.
 Charge compensation  : None.
 Solution method      : On-the-fly selection.
 Cavity type          : VdW (van der Waals Surface) (Alpha=1.000).
 Cavity algorithm     : GePol (No added spheres)
                        Default sphere list used, NSphG=   39.
                        Lebedev-Laikov grids with approx.  5.0 points / Ang**2.
                        Smoothing algorithm: York/Karplus (Gamma=1.0000).
                        Polarization charges: spherical gaussians, with
                                              point-specific exponents (IZeta= 3).
                        Self-potential: point-specific (ISelfS= 7).
                        Self-field    : sphere-specific E.n sum rule (ISelfD= 2).
 Solvent              : Water, Eps=  78.355300 Eps(inf)=   1.777849
 ------------------------------------------------------------------------------
 ------------------------------------------------------------------------------
 Atomic radii for non-electrostatic terms: SMD-CDS.
 ------------------------------------------------------------------------------
 Nuclear repulsion after PCM non-electrostatic terms =     1993.1268612572 Hartrees.
 One-electron integrals computed using PRISM.
   1 Symmetry operations used in ECPInt.
 ECPInt:  NShTT=   17020 NPrTT=  126709 LenC2=   16494 LenP2D=   70080.
 LDataN:  DoStor=T MaxTD1= 6 Len=  172
 NBasis=   392 RedAO= T EigKep=  4.51D-04  NBF=   392
 NBsUse=   392 1.00D-06 EigRej= -1.00D+00 NBFU=   392
 Defaulting to unpruned grid for atomic number  44.
 ExpMin= 1.60D-02 ExpMax= 9.48D+04 ExpMxC= 3.24D+03 IAcc=3 IRadAn=         5 AccDes= 0.00D+00
 Harris functional with IExCor= 1009 and IRadAn=       5 diagonalized for initial guess.
 HarFok:  IExCor= 1009 AccDes= 0.00D+00 IRadAn=         5 IDoV= 1 UseB2=F ITyADJ=14
 ICtDFT=  3500011 ScaDFX=  1.000000  1.000000  1.000000  1.000000
 Defaulting to unpruned grid for atomic number  44.
 FoFCou: FMM=F IPFlag=           0 FMFlag=      100000 FMFlg1=           0
         NFxFlg=           0 DoJE=T BraDBF=F KetDBF=T FulRan=T
         wScrn=  0.000000 ICntrl=       500 IOpCl=  0 I1Cent=   200000004 NGrid=           0
         NMat0=    1 NMatS0=      1 NMatT0=    0 NMatD0=    1 NMtDS0=    0 NMtDT0=    0
 Petite list used in FoFCou.
 Initial guess <Sx>= 0.0000 <Sy>= 0.0000 <Sz>= 0.5000 <S**2>= 0.7500 S= 0.5000
 Requested convergence on RMS density matrix=1.00D-08 within 128 cycles.
 Requested convergence on MAX density matrix=1.00D-06.
 Requested convergence on             energy=1.00D-06.
 No special actions if energy rises.
 Defaulting to unpruned grid for atomic number  44.
 Defaulting to unpruned grid for atomic number  44.
 Defaulting to unpruned grid for atomic number  44.
 Defaulting to unpruned grid for atomic number  44.
 Defaulting to unpruned grid for atomic number  44.
 Defaulting to unpruned grid for atomic number  44.
 Defaulting to unpruned grid for atomic number  44.
 Defaulting to unpruned grid for atomic number  44.
 Defaulting to unpruned grid for atomic number  44.
 Defaulting to unpruned grid for atomic number  44.
 Defaulting to unpruned grid for atomic number  44.
 Defaulting to unpruned grid for atomic number  44.
 Defaulting to unpruned grid for atomic number  44.
 Defaulting to unpruned grid for atomic number  44.
 Defaulting to unpruned grid for atomic number  44.
 Defaulting to unpruned grid for atomic number  44.
 Defaulting to unpruned grid for atomic number  44.
 Defaulting to unpruned grid for atomic number  44.
 Defaulting to unpruned grid for atomic number  44.
 Defaulting to unpruned grid for atomic number  44.
 Inv3:  Mode=1 IEnd=    22032300.
 Iteration    1 A*A^-1 deviation from unit magnitude is 5.77D-15 for   2696.
 Iteration    1 A*A^-1 deviation from orthogonality  is 2.82D-15 for   1710   1231.
 Iteration    1 A^-1*A deviation from unit magnitude is 6.00D-15 for   2696.
 Iteration    1 A^-1*A deviation from orthogonality  is 4.04D-15 for   2484   2421.
 EnCoef did   100 forward-backward iterations
 EnCoef did   100 forward-backward iterations
 EnCoef did     3 forward-backward iterations
 Restarting incremental Fock formation.
 Error on total polarization charges =  0.06066
 SCF Done:  E(UPBE1PBE) =  -1239.87747020     A.U. after   36 cycles
            NFock= 36  Conv=0.84D-08     -V/T= 2.0571
 <Sx>= 0.0000 <Sy>= 0.0000 <Sz>= 0.5000 <S**2>= 0.7569 S= 0.5035
 <L.S>= 0.000000000000E+00
 SMD-CDS (non-electrostatic) energy       (kcal/mol) =       9.85
 (included in total energy above)
 Annihilation of the first spin contaminant:
 S**2 before annihilation     0.7569,   after     0.7500
 DoSCS=F DFT=T ScalE2(SS,OS)=  1.000000  1.000000
 ExpMin= 1.60D-02 ExpMax= 9.48D+04 ExpMxC= 3.24D+03 IAcc=3 IRadAn=         5 AccDes= 0.00D+00
 HarFok:  IExCor=  205 AccDes= 0.00D+00 IRadAn=         5 IDoV=-2 UseB2=F ITyADJ=14
 ICtDFT= 12500011 ScaDFX=  1.000000  1.000000  1.000000  1.000000
 Defaulting to unpruned grid for atomic number  44.
 GSVD:  LWork=        -884 too small for GESVD, short by        3770 words or        3770 for optimal perf.
 Range of M.O.s used for correlation:    27   392
 NBasis=   392 NAE=    81 NBE=    80 NFC=    26 NFV=     0
 NROrb=    366 NOA=    55 NOB=    54 NVA=   311 NVB=   312
 NEqPCM:  Using non-equilibrium solvation (IEInf=1, Eps=  78.3553, EpsInf=   1.7778)
 Inv3:  Mode=1 IEnd=    22032300.
 Iteration    1 A*A^-1 deviation from unit magnitude is 7.99D-15 for   1021.
 Iteration    1 A*A^-1 deviation from orthogonality  is 2.89D-15 for   1021   1019.
 Iteration    1 A^-1*A deviation from unit magnitude is 7.55D-15 for   2708.
 Iteration    1 A^-1*A deviation from orthogonality  is 2.94D-14 for   2474   2421.
 Orbital symmetries:
 Alpha Orbitals:
       Occupied  (A) (A) (A) (A) (A) (A) (A) (A) (A) (A) (A) (A)
                 (A) (A) (A) (A) (A) (A) (A) (A) (A) (A) (A) (A)
                 (A) (A) (A) (A) (A) (A) (A) (A) (A) (A) (A) (A)
                 (A) (A) (A) (A) (A) (A) (A) (A) (A) (A) (A) (A)
                 (A) (A) (A) (A) (A) (A) (A) (A) (A) (A) (A) (A)
                 (A) (A) (A) (A) (A) (A) (A) (A) (A) (A) (A) (A)
                 (A) (A) (A) (A) (A) (A) (A) (A) (A)
       Virtual   (A) (A) (A) (A) (A) (A) (A) (A) (A) (A) (A) (A)
                 (A) (A) (A) (A) (A) (A) (A) (A) (A) (A) (A) (A)
                 (A) (A) (A) (A) (A) (A) (A) (A) (A) (A) (A) (A)
                 (A) (A) (A) (A) (A) (A) (A) (A) (A) (A) (A) (A)
                 (A) (A) (A) (A) (A) (A) (A) (A) (A) (A) (A) (A)
                 (A) (A) (A) (A) (A) (A) (A) (A) (A) (A) (A) (A)
                 (A) (A) (A) (A) (A) (A) (A) (A) (A) (A) (A) (A)
                 (A) (A) (A) (A) (A) (A) (A) (A) (A) (A) (A) (A)
                 (A) (A) (A) (A) (A) (A) (A) (A) (A) (A) (A) (A)
                 (A) (A) (A) (A) (A) (A) (A) (A) (A) (A) (A) (A)
                 (A) (A) (A) (A) (A) (A) (A) (A) (A) (A) (A) (A)
                 (A) (A) (A) (A) (A) (A) (A) (A) (A) (A) (A) (A)
                 (A) (A) (A) (A) (A) (A) (A) (A) (A) (A) (A) (A)
                 (A) (A) (A) (A) (A) (A) (A) (A) (A) (A) (A) (A)
                 (A) (A) (A) (A) (A) (A) (A) (A) (A) (A) (A) (A)
                 (A) (A) (A) (A) (A) (A) (A) (A) (A) (A) (A) (A)
                 (A) (A) (A) (A) (A) (A) (A) (A) (A) (A) (A) (A)
                 (A) (A) (A) (A) (A) (A) (A) (A) (A) (A) (A) (A)
                 (A) (A) (A) (A) (A) (A) (A) (A) (A) (A) (A) (A)
                 (A) (A) (A) (A) (A) (A) (A) (A) (A) (A) (A) (A)
                 (A) (A) (A) (A) (A) (A) (A) (A) (A) (A) (A) (A)
                 (A) (A) (A) (A) (A) (A) (A) (A) (A) (A) (A) (A)
                 (A) (A) (A) (A) (A) (A) (A) (A) (A) (A) (A) (A)
                 (A) (A) (A) (A) (A) (A) (A) (A) (A) (A) (A) (A)
                 (A) (A) (A) (A) (A) (A) (A) (A) (A) (A) (A) (A)
                 (A) (A) (A) (A) (A) (A) (A) (A) (A) (A) (A)
 Beta  Orbitals:
       Occupied  (A) (A) (A) (A) (A) (A) (A) (A) (A) (A) (A) (A)
                 (A) (A) (A) (A) (A) (A) (A) (A) (A) (A) (A) (A)
                 (A) (A) (A) (A) (A) (A) (A) (A) (A) (A) (A) (A)
                 (A) (A) (A) (A) (A) (A) (A) (A) (A) (A) (A) (A)
                 (A) (A) (A) (A) (A) (A) (A) (A) (A) (A) (A) (A)
                 (A) (A) (A) (A) (A) (A) (A) (A) (A) (A) (A) (A)
                 (A) (A) (A) (A) (A) (A) (A) (A)
       Virtual   (A) (A) (A) (A) (A) (A) (A) (A) (A) (A) (A) (A)
                 (A) (A) (A) (A) (A) (A) (A) (A) (A) (A) (A) (A)
                 (A) (A) (A) (A) (A) (A) (A) (A) (A) (A) (A) (A)
                 (A) (A) (A) (A) (A) (A) (A) (A) (A) (A) (A) (A)
                 (A) (A) (A) (A) (A) (A) (A) (A) (A) (A) (A) (A)
                 (A) (A) (A) (A) (A) (A) (A) (A) (A) (A) (A) (A)
                 (A) (A) (A) (A) (A) (A) (A) (A) (A) (A) (A) (A)
                 (A) (A) (A) (A) (A) (A) (A) (A) (A) (A) (A) (A)
                 (A) (A) (A) (A) (A) (A) (A) (A) (A) (A) (A) (A)
                 (A) (A) (A) (A) (A) (A) (A) (A) (A) (A) (A) (A)
                 (A) (A) (A) (A) (A) (A) (A) (A) (A) (A) (A) (A)
                 (A) (A) (A) (A) (A) (A) (A) (A) (A) (A) (A) (A)
                 (A) (A) (A) (A) (A) (A) (A) (A) (A) (A) (A) (A)
                 (A) (A) (A) (A) (A) (A) (A) (A) (A) (A) (A) (A)
                 (A) (A) (A) (A) (A) (A) (A) (A) (A) (A) (A) (A)
                 (A) (A) (A) (A) (A) (A) (A) (A) (A) (A) (A) (A)
                 (A) (A) (A) (A) (A) (A) (A) (A) (A) (A) (A) (A)
                 (A) (A) (A) (A) (A) (A) (A) (A) (A) (A) (A) (A)
                 (A) (A) (A) (A) (A) (A) (A) (A) (A) (A) (A) (A)
                 (A) (A) (A) (A) (A) (A) (A) (A) (A) (A) (A) (A)
                 (A) (A) (A) (A) (A) (A) (A) (A) (A) (A) (A) (A)
                 (A) (A) (A) (A) (A) (A) (A) (A) (A) (A) (A) (A)
                 (A) (A) (A) (A) (A) (A) (A) (A) (A) (A) (A) (A)
                 (A) (A) (A) (A) (A) (A) (A) (A) (A) (A) (A) (A)
                 (A) (A) (A) (A) (A) (A) (A) (A) (A) (A) (A) (A)
                 (A) (A) (A) (A) (A) (A) (A) (A) (A) (A) (A) (A)
   100 initial guesses have been made.
 Convergence on wavefunction:    0.001000000000000
 Iteration     1 Dimension   100 NMult     0 NNew    100
 CISAX will form    20 AO SS matrices at one time.
 Defaulting to unpruned grid for atomic number  44.
 Defaulting to unpruned grid for atomic number  44.
 Defaulting to unpruned grid for atomic number  44.
 Defaulting to unpruned grid for atomic number  44.
 Defaulting to unpruned grid for atomic number  44.
 Defaulting to unpruned grid for atomic number  44.
 Defaulting to unpruned grid for atomic number  44.
 Defaulting to unpruned grid for atomic number  44.
 Defaulting to unpruned grid for atomic number  44.
 Defaulting to unpruned grid for atomic number  44.
 Defaulting to unpruned grid for atomic number  44.
 Defaulting to unpruned grid for atomic number  44.
 Defaulting to unpruned grid for atomic number  44.
 Defaulting to unpruned grid for atomic number  44.
 Defaulting to unpruned grid for atomic number  44.
 Defaulting to unpruned grid for atomic number  44.
 Defaulting to unpruned grid for atomic number  44.
 Defaulting to unpruned grid for atomic number  44.
 Defaulting to unpruned grid for atomic number  44.
 Defaulting to unpruned grid for atomic number  44.
 New state      3 was old state     13
 New state      4 was old state      5
 New state      5 was old state      3
 New state      6 was old state     17
 New state      7 was old state      4
 New state      8 was old state      6
 New state     10 was old state     20
 New state     11 was old state      7
 New state     12 was old state     19
 New state     13 was old state     24
 New state     14 was old state      8
 New state     15 was old state     10
 New state     16 was old state     35
 New state     17 was old state     11
 New state     18 was old state     14
 New state     19 was old state     27
 New state     20 was old state     12
 New state     21 was old state     18
 New state     22 was old state     42
 New state     23 was old state     15
 New state     24 was old state     21
 New state     25 was old state     23
 Iteration     2 Dimension   150 NMult   100 NNew     50
 New state      8 was old state      9
 New state      9 was old state      8
 New state     13 was old state     14
 New state     14 was old state     13
 New state     15 was old state     16
 New state     16 was old state     15
 New state     18 was old state     29
 New state     19 was old state     18
 New state     20 was old state     21
 New state     21 was old state     19
 New state     24 was old state     20
 New state     25 was old state     24
 Iteration     3 Dimension   200 NMult   150 NNew     50
 Iteration     4 Dimension   250 NMult   200 NNew     50
 Iteration     5 Dimension   298 NMult   250 NNew     48
 Iteration     6 Dimension   316 NMult   298 NNew     18
 Iteration     7 Dimension   320 NMult   316 NNew      4
 Iteration     8 Dimension   322 NMult   320 NNew      2
 ***********************************************************************
 Excited states from <AA,BB:AA,BB> singles matrix:
 ***********************************************************************
 
 ExtSpn:  IState=     1 X2= 1.104 Y2= 0.104 X2-Y2-1= 4.44D-16
          S2Grnd=  0.757 Ra=  0.000 Rb=  0.009 T= -0.007 S2Ext=  0.002 S2=  0.759
 ExtSpn:  IState=     2 X2= 1.003 Y2= 0.003 X2-Y2-1= 0.00D+00
          S2Grnd=  0.757 Ra=  0.001 Rb=  0.053 T=  0.004 S2Ext=  0.058 S2=  0.815
 ExtSpn:  IState=     3 X2= 1.008 Y2= 0.008 X2-Y2-1= 0.00D+00
          S2Grnd=  0.757 Ra=  0.001 Rb=  0.013 T= -0.002 S2Ext=  0.013 S2=  0.770
 ExtSpn:  IState=     4 X2= 1.003 Y2= 0.003 X2-Y2-1=-4.44D-16
          S2Grnd=  0.757 Ra=  0.006 Rb=  0.071 T=  0.018 S2Ext=  0.095 S2=  0.852
 ExtSpn:  IState=     5 X2= 1.014 Y2= 0.014 X2-Y2-1=-2.22D-16
          S2Grnd=  0.757 Ra=  0.434 Rb=  0.551 T=  0.965 S2Ext=  1.951 S2=  2.708
 ExtSpn:  IState=     6 X2= 1.008 Y2= 0.008 X2-Y2-1=-4.44D-16
          S2Grnd=  0.757 Ra=  0.515 Rb=  0.452 T=  0.939 S2Ext=  1.905 S2=  2.662
 ExtSpn:  IState=     7 X2= 1.006 Y2= 0.006 X2-Y2-1= 4.44D-16
          S2Grnd=  0.757 Ra=  0.094 Rb=  0.119 T= -0.132 S2Ext=  0.082 S2=  0.838
 ExtSpn:  IState=     8 X2= 1.004 Y2= 0.004 X2-Y2-1=-2.22D-16
          S2Grnd=  0.757 Ra=  0.506 Rb=  0.368 T= -0.733 S2Ext=  0.141 S2=  0.898
 ExtSpn:  IState=     9 X2= 1.004 Y2= 0.004 X2-Y2-1=-5.55D-16
          S2Grnd=  0.757 Ra=  0.408 Rb=  0.563 T=  0.832 S2Ext=  1.803 S2=  2.560
 ExtSpn:  IState=    10 X2= 1.012 Y2= 0.012 X2-Y2-1= 4.44D-16
          S2Grnd=  0.757 Ra=  0.441 Rb=  0.549 T=  0.965 S2Ext=  1.955 S2=  2.711
 ExtSpn:  IState=    11 X2= 1.002 Y2= 0.002 X2-Y2-1= 0.00D+00
          S2Grnd=  0.757 Ra=  0.303 Rb=  0.670 T= -0.353 S2Ext=  0.619 S2=  1.376
 ExtSpn:  IState=    12 X2= 1.003 Y2= 0.003 X2-Y2-1= 4.44D-16
          S2Grnd=  0.757 Ra=  0.307 Rb=  0.664 T=  0.069 S2Ext=  1.040 S2=  1.797
 ExtSpn:  IState=    13 X2= 1.010 Y2= 0.010 X2-Y2-1= 4.44D-16
          S2Grnd=  0.757 Ra=  0.648 Rb=  0.342 T= -0.176 S2Ext=  0.814 S2=  1.571
 ExtSpn:  IState=    14 X2= 1.002 Y2= 0.002 X2-Y2-1= 0.00D+00
          S2Grnd=  0.757 Ra=  0.440 Rb=  0.550 T=  0.609 S2Ext=  1.599 S2=  2.356
 ExtSpn:  IState=    15 X2= 1.013 Y2= 0.013 X2-Y2-1=-1.11D-15
          S2Grnd=  0.757 Ra=  0.396 Rb=  0.515 T=  0.600 S2Ext=  1.511 S2=  2.268
 ExtSpn:  IState=    16 X2= 1.005 Y2= 0.005 X2-Y2-1= 4.44D-16
          S2Grnd=  0.757 Ra=  0.348 Rb=  0.317 T=  0.100 S2Ext=  0.764 S2=  1.521
 ExtSpn:  IState=    17 X2= 1.008 Y2= 0.008 X2-Y2-1= 2.22D-16
          S2Grnd=  0.757 Ra=  0.283 Rb=  0.178 T=  0.140 S2Ext=  0.602 S2=  1.359
 ExtSpn:  IState=    18 X2= 1.005 Y2= 0.005 X2-Y2-1= 6.66D-16
          S2Grnd=  0.757 Ra=  0.782 Rb=  0.193 T=  0.008 S2Ext=  0.983 S2=  1.740
 ExtSpn:  IState=    19 X2= 1.002 Y2= 0.002 X2-Y2-1=-2.22D-16
          S2Grnd=  0.757 Ra=  0.455 Rb=  0.503 T= -0.850 S2Ext=  0.108 S2=  0.865
 ExtSpn:  IState=    20 X2= 1.002 Y2= 0.002 X2-Y2-1=-2.22D-16
          S2Grnd=  0.757 Ra=  0.440 Rb=  0.525 T= -0.793 S2Ext=  0.172 S2=  0.929
 ExtSpn:  IState=    21 X2= 1.002 Y2= 0.002 X2-Y2-1=-5.55D-16
          S2Grnd=  0.757 Ra=  0.083 Rb=  0.149 T=  0.155 S2Ext=  0.387 S2=  1.143
 ExtSpn:  IState=    22 X2= 1.003 Y2= 0.003 X2-Y2-1= 4.44D-16
          S2Grnd=  0.757 Ra=  0.433 Rb=  0.545 T=  0.888 S2Ext=  1.866 S2=  2.623
 ExtSpn:  IState=    23 X2= 1.004 Y2= 0.004 X2-Y2-1=-5.55D-16
          S2Grnd=  0.757 Ra=  0.409 Rb=  0.430 T=  0.763 S2Ext=  1.602 S2=  2.359
 ExtSpn:  IState=    24 X2= 1.002 Y2= 0.002 X2-Y2-1= 2.22D-16
          S2Grnd=  0.757 Ra=  0.221 Rb=  0.752 T=  0.427 S2Ext=  1.399 S2=  2.156
 ExtSpn:  IState=    25 X2= 1.004 Y2= 0.004 X2-Y2-1=-3.33D-16
          S2Grnd=  0.757 Ra=  0.578 Rb=  0.185 T=  0.466 S2Ext=  1.229 S2=  1.986
 Ground to excited state transition densities written to RWF  633
 Ground to excited state transition electric dipole moments (Au):
       state          X           Y           Z        Dip. S.      Osc.
         1         0.0093     -0.0060     -0.0439      0.0020      0.0000
         2         0.0397     -0.0426     -0.0846      0.0105      0.0004
         3         0.1813      0.0238      0.1212      0.0481      0.0024
         4         0.0437      0.0161     -0.2051      0.0442      0.0027
         5        -0.0226     -0.0696      0.0431      0.0072      0.0005
         6         0.0521      0.0636      0.0753      0.0124      0.0009
         7         0.0685     -0.3283     -0.5172      0.3800      0.0293
         8        -0.5113     -0.7235      0.2546      0.8497      0.0717
         9        -0.1004     -0.1140      0.0074      0.0231      0.0020
        10        -0.0143      0.0065     -0.0453      0.0023      0.0002
        11        -0.1995      0.0768     -0.0575      0.0490      0.0043
        12         0.1489     -0.0999     -0.0109      0.0323      0.0029
        13        -0.1172     -0.1227      0.0859      0.0362      0.0033
        14         0.0060      0.1096     -0.0481      0.0144      0.0013
        15        -0.0878     -0.0439     -0.0071      0.0097      0.0009
        16         0.0634      0.0738      0.0485      0.0118      0.0011
        17         0.0595     -0.1997      0.1274      0.0597      0.0057
        18        -0.0613      0.0407      0.0046      0.0054      0.0005
        19         0.1931      0.1664      0.0806      0.0715      0.0071
        20        -0.1891     -0.1474     -0.0320      0.0585      0.0059
        21        -0.1119     -0.1362     -0.0363      0.0324      0.0033
        22        -0.0106     -0.0054     -0.0198      0.0005      0.0001
        23         0.0025     -0.0767      0.0181      0.0062      0.0006
        24         0.0217      0.0281      0.0132      0.0014      0.0001
        25        -0.0329      0.1273     -0.1029      0.0279      0.0029
 Ground to excited state transition velocity dipole moments (Au):
       state          X           Y           Z        Dip. S.      Osc.
         1        -0.0003      0.0008     -0.0001      0.0000      0.0000
         2         0.0023      0.0105      0.0053      0.0001      0.0017
         3        -0.0157     -0.0033     -0.0091      0.0003      0.0030
         4        -0.0055     -0.0034      0.0155      0.0003      0.0020
         5         0.0027      0.0054     -0.0040      0.0001      0.0003
         6        -0.0050     -0.0076     -0.0071      0.0001      0.0008
         7        -0.0073      0.0333      0.0504      0.0037      0.0214
         8         0.0573      0.0768     -0.0279      0.0100      0.0524
         9         0.0109      0.0129     -0.0011      0.0003      0.0015
        10         0.0006     -0.0004      0.0036      0.0000      0.0001
        11         0.0145     -0.0076     -0.0004      0.0003      0.0014
        12        -0.0094      0.0128      0.0069      0.0003      0.0015
        13         0.0131      0.0114     -0.0118      0.0004      0.0021
        14        -0.0002     -0.0143      0.0046      0.0002      0.0011
        15         0.0136      0.0031      0.0038      0.0002      0.0010
        16        -0.0052     -0.0092     -0.0058      0.0001      0.0007
        17        -0.0100      0.0285     -0.0197      0.0013      0.0060
        18         0.0105     -0.0092     -0.0008      0.0002      0.0009
        19        -0.0191     -0.0184     -0.0064      0.0007      0.0033
        20         0.0278      0.0087      0.0195      0.0012      0.0054
        21         0.0145      0.0193      0.0048      0.0006      0.0027
        22         0.0018      0.0003      0.0042      0.0000      0.0001
        23         0.0005      0.0105     -0.0026      0.0001      0.0005
        24        -0.0031     -0.0055      0.0042      0.0001      0.0002
        25        -0.0024     -0.0134      0.0120      0.0003      0.0014
 Ground to excited state transition magnetic dipole moments (Au):
       state          X           Y           Z
         1         0.1688      0.0858     -0.6710
         2         0.1704      0.1551     -0.0208
         3        -0.0213      1.0005      0.1662
         4        -0.0823     -0.1845      0.0864
         5        -0.0015     -0.0284      0.0366
         6        -0.0014     -0.0032      0.0537
         7        -0.1767      0.2735     -0.0284
         8        -0.0080      0.0848     -0.1371
         9         0.0086      0.0542     -0.0307
        10         0.0071     -0.0103     -0.0906
        11         0.2420      0.1830     -0.6890
        12        -0.1142      0.0069      0.4988
        13        -0.0694     -0.2057     -0.1335
        14         0.0758      0.0970     -0.1751
        15        -0.1469     -0.0055     -0.0483
        16        -0.0007     -0.0289      0.0010
        17         0.0932     -0.1463      0.1693
        18         0.0031      0.0044     -0.2972
        19         0.1659     -0.1073      0.5483
        20        -0.7577      0.1981      0.0738
        21         0.0180     -0.1466      0.0934
        22        -0.1727      0.0155     -0.0720
        23        -0.0158     -0.1548      0.1102
        24        -0.1086     -0.0072      0.1628
        25         0.1787      0.2270      0.0576
 Ground to excited state transition velocity quadrupole moments (Au):
       state          XX          YY          ZZ          XY          XZ          YZ
         1         0.0007     -0.0032      0.0026      0.0079     -0.0008      0.0017
         2         0.0399     -0.0207     -0.0191     -0.0111     -0.0001     -0.0055
         3        -0.0198     -0.0069      0.0350      0.0157      0.0368      0.0035
         4         0.0020      0.0325     -0.0225      0.0186     -0.0190     -0.0157
         5        -0.0031      0.0271     -0.0065      0.0117     -0.0015      0.0141
         6        -0.0221     -0.0280      0.0224     -0.0093      0.0048      0.0002
         7         0.0883      0.1730     -0.1138      0.0882     -0.0061     -0.0758
         8         0.0185      0.2837     -0.0742      0.1286     -0.0086      0.1051
         9         0.0029      0.0358     -0.0063      0.0189     -0.0079      0.0080
        10        -0.0078     -0.0003      0.0123      0.0102     -0.0011     -0.0038
        11        -0.0382     -0.0511      0.0560     -0.0092      0.0020      0.0227
        12         0.0386      0.0381     -0.0478      0.0108     -0.0158     -0.0462
        13         0.0069      0.0790     -0.0161      0.0433      0.0165      0.0577
        14        -0.0001     -0.0660      0.0220     -0.0069     -0.0141     -0.0200
        15         0.0679      0.0248     -0.0314      0.0049     -0.0069     -0.0025
        16        -0.0575     -0.1020      0.0618      0.0418     -0.0156     -0.0315
        17        -0.1404      0.0717      0.0362      0.0823      0.0147      0.0354
        18         0.0301     -0.0481      0.0215      0.0554     -0.0116     -0.0026
        19        -0.0333     -0.0076      0.0322     -0.0268      0.0064      0.0027
        20         0.0572      0.0067     -0.0651     -0.1229     -0.0573     -0.1362
        21         0.0737      0.1308     -0.0766      0.0199      0.0061      0.0083
        22         0.0028     -0.0127     -0.0034     -0.0188     -0.0085     -0.0274
        23         0.0207      0.0484     -0.0242     -0.0051      0.0076      0.0110
        24        -0.0040     -0.0566      0.0128     -0.0413     -0.0098     -0.0359
        25        -0.0177     -0.0199     -0.0056      0.0134     -0.0255     -0.0237
 <0|del|b> * <b|rxdel|0> + <0|del|b> * <b|delr+rdel|0>
 Rotatory Strengths (R) in cgs (10**-40 erg-esu-cm/Gauss)
       state          XX          YY          ZZ    R(velocity)    E-M Angle
         1         5.6450      1.6970      0.6670      2.6696       78.70
         2         9.1005      2.0553     12.6835      7.9464       46.46
         3       -22.3813     -5.0598    -14.0173    -13.8195      103.83
         4         8.4107      6.1244      4.0599      6.1983       49.10
         5        -1.0975     -0.2107     -0.6605     -0.6562      154.67
         6        -0.7943     -1.3811     -0.0141     -0.7298      124.08
         7        37.7649    -12.3349     29.5432     18.3244       63.19
         8        20.6861     36.2369     -1.7296     18.3978       52.13
         9         2.2283      0.6504      1.6529      1.5105       38.94
        10        -0.7607     -0.9611      0.0293     -0.5642      161.24
        11        -2.9581     10.9989      4.7888      4.2765       78.81
        12        10.0679     12.9235      1.4012      8.1309       58.89
        13        -3.8038      5.0029     -9.8999     -2.9003      108.30
        14        -6.2450     -2.0301     -3.0958     -3.7903      133.49
        15        -0.3994     -5.6058     -5.0306     -3.6786      169.30
        16        -0.3111      1.0007      0.6155      0.4350       40.94
        17       -23.5310     -7.3939    -10.6622    -13.8624      164.86
        18         0.0987      0.6826      0.3078      0.3630       86.93
        19        -2.9854    -16.4465     -2.9976     -7.4765      107.23
        20         2.9634    -49.0361    -37.4340    -27.8356      130.52
        21        -5.5701      1.7124     -5.9736     -3.2771      119.48
        22        -0.8705     -1.3508     -0.5987     -0.9400      134.96
        23        -4.5334     -0.6827     -3.5791     -2.9317      158.20
        24         1.1363      2.9849      0.7268      1.6160       44.52
        25        -5.6949      0.3412     -7.1867     -4.1801      121.40
 1/2[<0|r|b>*<b|rxdel|0> + (<0|rxdel|b>*<b|r|0>)*]
 Rotatory Strengths (R) in cgs (10**-40 erg-esu-cm/Gauss)
       state          XX          YY          ZZ     R(length)
         1        -1.1081      0.3641    -20.8337     -7.1926
         2        -4.7893      4.6734     -1.2452     -0.4537
         3         2.7326    -16.8262    -14.2367     -9.4434
         4         2.5428      2.0991     12.5249      5.7223
         5        -0.0241     -1.3961     -1.1142     -0.8448
         6         0.0522      0.1440     -2.8568     -0.8869
         7         8.5548     63.5138    -10.3807     20.5626
         8        -2.8783     43.4101     24.6821     21.7380
         9         0.6108      4.3687      0.1616      1.7137
        10         0.0716      0.0471     -2.9017     -0.9277
        11        34.1293     -9.9345    -27.9931     -1.2661
        12        12.0206      0.4882      3.8392      5.4493
        13        -5.7495    -17.8550      8.1131     -5.1638
        14        -0.3240     -7.5243     -5.9535     -4.6006
        15        -9.1194     -0.1709     -0.2423     -3.1775
        16         0.0314      1.5102     -0.0343      0.5024
[...]
     3  C   -0.000138   0.000034   0.000000   0.000001  -0.000003  -0.000000
     4  H    0.001082   0.000057   0.000001   0.000045   0.000112   0.000012
     5  N    0.002699   0.000880   0.000003   0.000050   0.000199   0.000004
     6  C   -0.002258  -0.000730  -0.000008  -0.000191  -0.000535   0.000037
     7  C    0.000018  -0.000001  -0.000274  -0.000076   0.000001   0.000000
     8  C    0.000000  -0.000001   0.000044  -0.000005   0.000000   0.000000
     9  P   -0.000694  -0.001556   0.000804  -0.000182  -0.000036  -0.000001
    10  H    0.000071  -0.000019  -0.000000  -0.000003  -0.000048  -0.000012
    11  C    0.000636   0.000062   0.000000   0.000005   0.000079   0.000007
    12  C   -0.000357   0.000254  -0.000330   0.000090  -0.000031  -0.000001
    13  C   -0.002518   0.001556   0.000026  -0.000974  -0.001426  -0.000227
    14  N    0.001556  -0.001792  -0.000003  -0.000365  -0.000440  -0.000016
    15  C    0.000026  -0.000003  -0.000975   0.000067   0.000061   0.000001
    16  C   -0.000974  -0.000365   0.000067  -0.003675   0.000766   0.000027
    17  C   -0.001426  -0.000440   0.000061   0.000766   0.005982   0.000302
    18  H   -0.000227  -0.000016   0.000001   0.000027   0.000302  -0.000001
    19  H    0.000006   0.000024  -0.000072   0.000090  -0.000002  -0.000000
    20  H   -0.000001  -0.000006   0.000094   0.000059   0.000000   0.000000
    21  C    0.000025  -0.000103  -0.000140   0.000103  -0.000147  -0.000005
    22  C    0.000052   0.000232  -0.000044  -0.000314  -0.000228   0.000016
    23  H    0.000012  -0.000002  -0.000017  -0.000007  -0.000019  -0.000001
    24  H   -0.000004   0.000003  -0.000000  -0.000001   0.000004   0.000002
    25  O    0.000010   0.000004   0.000012  -0.000002   0.000000   0.000000
    26  H   -0.000001   0.000002  -0.000055  -0.000018  -0.000000  -0.000000
    27  H   -0.000001  -0.000002   0.000023   0.000009  -0.000000  -0.000000
    28  H   -0.000001   0.000025   0.000003   0.000039  -0.000001  -0.000000
    29  H    0.000000   0.000003  -0.000063  -0.000005   0.000000   0.000000
    30  H    0.000000   0.000000  -0.000024  -0.000003   0.000000   0.000000
    31  H   -0.000000  -0.000000  -0.000010  -0.000000   0.000000   0.000000
    32  H   -0.000022   0.000005  -0.000000   0.000000  -0.000000  -0.000000
    33  H    0.000044   0.000003   0.000000   0.000000   0.000004   0.000001
    34  H    0.000010  -0.000020   0.000000  -0.000001  -0.000002  -0.000000
    35  H   -0.000163  -0.000038  -0.000001  -0.000013  -0.000035  -0.000002
    36  H   -0.000001  -0.000000  -0.000000   0.000000  -0.000002  -0.000001
    37  H   -0.000077  -0.000019  -0.000000  -0.000002  -0.000006  -0.000000
    38  Ru   0.001604   0.002145   0.000394   0.002877  -0.002694  -0.000223
    39  H    0.000003  -0.000000  -0.000002  -0.000002   0.000000   0.000000
              19         20         21         22         23         24
     1  O   -0.000000   0.000000   0.000000   0.000000   0.000000   0.000000
     2  O   -0.000002   0.000001  -0.000007   0.000005  -0.000000   0.000000
     3  C   -0.000000   0.000000   0.000000  -0.000000  -0.000000   0.000000
     4  H   -0.000000   0.000000  -0.000007   0.000004   0.000000   0.000000
     5  N   -0.000000   0.000000  -0.000002  -0.000003  -0.000000  -0.000000
     6  C    0.000001  -0.000000   0.000017   0.000010   0.000000  -0.000000
     7  C   -0.000008  -0.000057  -0.000012  -0.000001   0.000000  -0.000000
     8  C   -0.000001   0.000018  -0.000000  -0.000000   0.000000  -0.000000
     9  P    0.000109  -0.000086   0.000002  -0.000008  -0.000001  -0.000000
    10  H    0.000000   0.000000   0.000000   0.000003   0.000000  -0.000000
    11  C    0.000000  -0.000000  -0.000001  -0.000000  -0.000000  -0.000000
    12  C   -0.000099  -0.000004   0.000010   0.000002  -0.000000   0.000000
    13  C    0.000006  -0.000001   0.000025   0.000052   0.000012  -0.000004
    14  N    0.000024  -0.000006  -0.000103   0.000232  -0.000002   0.000003
    15  C   -0.000072   0.000094  -0.000140  -0.000044  -0.000017  -0.000000
    16  C    0.000090   0.000059   0.000103  -0.000314  -0.000007  -0.000001
    17  C   -0.000002   0.000000  -0.000147  -0.000228  -0.000019   0.000004
    18  H   -0.000000   0.000000  -0.000005   0.000016  -0.000001   0.000002
    19  H   -0.000104   0.000030   0.000025   0.000002  -0.000002   0.000000
    20  H    0.000030  -0.000302  -0.000013  -0.000001  -0.000004   0.000000
    21  C    0.000025  -0.000013   0.001913   0.000193   0.000018   0.000006
    22  C    0.000002  -0.000001   0.000193  -0.002926   0.000045  -0.000039
    23  H   -0.000002  -0.000004   0.000018   0.000045  -0.000108   0.000002
    24  H    0.000000   0.000000   0.000006  -0.000039   0.000002   0.000123
    25  O    0.000012   0.000000  -0.000000  -0.000000   0.000000  -0.000000
    26  H    0.000000   0.000028   0.000004   0.000000  -0.000000  -0.000000
    27  H    0.000000  -0.000000  -0.000000   0.000000   0.000000  -0.000000
    28  H   -0.000000   0.000002   0.000004   0.000001  -0.000000   0.000000
    29  H   -0.000015   0.000003   0.000000  -0.000000  -0.000000   0.000000
    30  H   -0.000003  -0.000001  -0.000000  -0.000000  -0.000000   0.000000
    31  H    0.000010  -0.000006   0.000000  -0.000000  -0.000000   0.000000
    32  H   -0.000000  -0.000000   0.000000   0.000000  -0.000000   0.000000
    33  H    0.000000   0.000000  -0.000000   0.000000  -0.000000  -0.000000
    34  H    0.000000  -0.000000  -0.000000  -0.000000   0.000000  -0.000000
    35  H   -0.000000  -0.000000   0.000001   0.000001   0.000000   0.000000
    36  H   -0.000000   0.000000   0.000000  -0.000000   0.000000  -0.000000
    37  H    0.000000  -0.000000   0.000000   0.000000   0.000000  -0.000000
    38  Ru  -0.000023   0.000083   0.000078   0.000670  -0.000002   0.000012
    39  H    0.000000  -0.000000  -0.000000  -0.000000  -0.000000  -0.000000
              25         26         27         28         29         30
     1  O   -0.000004   0.000000   0.000004  -0.000002  -0.000004  -0.000005
     2  O   -0.000000   0.000056  -0.000815  -0.000379   0.000002   0.000011
     3  C   -0.000002  -0.000000  -0.000000  -0.000001  -0.000000   0.000000
     4  H   -0.000000   0.000000  -0.000000   0.000002  -0.000000   0.000000
     5  N    0.000047   0.000000  -0.000001   0.000000   0.000000   0.000000
     6  C   -0.000007   0.000000  -0.000000   0.000003  -0.000000  -0.000000
     7  C   -0.000001   0.001234  -0.000778   0.000740   0.000056   0.000131
     8  C   -0.000038  -0.000059  -0.000029  -0.000012  -0.000042   0.000172
     9  P    0.000164   0.000516   0.001329   0.001036  -0.000083  -0.000666
    10  H   -0.000000   0.000000   0.000000   0.000000   0.000000   0.000000
    11  C    0.000031   0.000000  -0.000000   0.000000   0.000000   0.000000
    12  C   -0.006903   0.000003  -0.000011  -0.000002   0.000174   0.000052
    13  C    0.000010  -0.000001  -0.000001  -0.000001   0.000000   0.000000
    14  N    0.000004   0.000002  -0.000002   0.000025   0.000003   0.000000
    15  C    0.000012  -0.000055   0.000023   0.000003  -0.000063  -0.000024
    16  C   -0.000002  -0.000018   0.000009   0.000039  -0.000005  -0.000003
    17  C    0.000000  -0.000000  -0.000000  -0.000001   0.000000   0.000000
    18  H    0.000000  -0.000000  -0.000000  -0.000000   0.000000   0.000000
    19  H    0.000012   0.000000   0.000000  -0.000000  -0.000015  -0.000003
    20  H    0.000000   0.000028  -0.000000   0.000002   0.000003  -0.000001
    21  C   -0.000000   0.000004  -0.000000   0.000004   0.000000  -0.000000
    22  C   -0.000000   0.000000   0.000000   0.000001  -0.000000  -0.000000
    23  H    0.000000  -0.000000   0.000000  -0.000000  -0.000000  -0.000000
    24  H   -0.000000  -0.000000  -0.000000   0.000000   0.000000   0.000000
    25  O    0.029252  -0.000000   0.000000   0.000000  -0.000127  -0.000008
    26  H   -0.000000  -0.002658   0.000008  -0.000086  -0.000001   0.000019
    27  H    0.000000   0.000008   0.000607   0.000114  -0.000006  -0.000060
    28  H    0.000000  -0.000086   0.000114  -0.000620  -0.000001   0.000001
    29  H   -0.000127  -0.000001  -0.000006  -0.000001   0.000026   0.000096
    30  H   -0.000008   0.000019  -0.000060   0.000001   0.000096   0.000159
    31  H   -0.000001  -0.000028   0.000000   0.000001   0.000012  -0.000011
    32  H   -0.000000  -0.000000   0.000000  -0.000000  -0.000000  -0.000000
    33  H    0.000000   0.000000  -0.000000  -0.000000   0.000000   0.000000
    34  H   -0.000000   0.000000   0.000000   0.000001   0.000000  -0.000000
    35  H   -0.000044  -0.000000   0.000000  -0.000000  -0.000000  -0.000000
    36  H    0.000001  -0.000000   0.000000  -0.000000  -0.000000  -0.000000
    37  H   -0.000170   0.000000   0.000000   0.000000  -0.000000  -0.000000
    38  Ru   0.000284  -0.000598  -0.000784  -0.001211  -0.000011   0.000219
    39  H   -0.000022   0.000000  -0.000011   0.000001   0.000015   0.000008
              31         32         33         34         35         36
     1  O    0.000000  -0.000094   0.000003   0.000030   0.000002   0.000000
     2  O    0.000000   0.000075  -0.000106   0.000708   0.000010   0.000001
     3  C    0.000000  -0.000649   0.000742   0.001113  -0.000007  -0.000006
     4  H    0.000000   0.000038  -0.000038  -0.000262   0.000006   0.000003
     5  N    0.000000  -0.000247  -0.000017   0.000153  -0.000184   0.000033
     6  C   -0.000000  -0.000006   0.000225  -0.000114   0.000097   0.000024
     7  C    0.000047   0.000000   0.000000  -0.000002  -0.000000   0.000000
     8  C    0.000098   0.000000   0.000000  -0.000000  -0.000000  -0.000000
     9  P    0.000047   0.000003  -0.000002   0.000013   0.000005   0.000000
    10  H    0.000000   0.000018  -0.000070  -0.000019   0.000029   0.000005
    11  C    0.000000  -0.000018   0.000226  -0.000105  -0.000226   0.000277
    12  C    0.000010  -0.000028  -0.000005   0.000021   0.000113  -0.000006
    13  C   -0.000000  -0.000022   0.000044   0.000010  -0.000163  -0.000001
    14  N   -0.000000   0.000005   0.000003  -0.000020  -0.000038  -0.000000
    15  C   -0.000010  -0.000000   0.000000   0.000000  -0.000001  -0.000000
    16  C   -0.000000   0.000000   0.000000  -0.000001  -0.000013   0.000000
    17  C    0.000000  -0.000000   0.000004  -0.000002  -0.000035  -0.000002
    18  H    0.000000  -0.000000   0.000001  -0.000000  -0.000002  -0.000001
    19  H    0.000010  -0.000000   0.000000   0.000000  -0.000000  -0.000000
    20  H   -0.000006  -0.000000   0.000000  -0.000000  -0.000000   0.000000
    21  C    0.000000   0.000000  -0.000000  -0.000000   0.000001   0.000000
    22  C   -0.000000   0.000000   0.000000  -0.000000   0.000001  -0.000000
    23  H   -0.000000  -0.000000  -0.000000   0.000000   0.000000   0.000000
    24  H    0.000000   0.000000  -0.000000  -0.000000   0.000000  -0.000000
    25  O   -0.000001  -0.000000   0.000000  -0.000000  -0.000044   0.000001
    26  H   -0.000028  -0.000000   0.000000   0.000000  -0.000000  -0.000000
    27  H    0.000000   0.000000  -0.000000   0.000000   0.000000   0.000000
    28  H    0.000001  -0.000000  -0.000000   0.000001  -0.000000  -0.000000
    29  H    0.000012  -0.000000   0.000000   0.000000  -0.000000  -0.000000
    30  H   -0.000011  -0.000000   0.000000  -0.000000  -0.000000  -0.000000
    31  H   -0.000227  -0.000000   0.000000  -0.000000  -0.000000   0.000000
    32  H   -0.000000  -0.000655   0.000076   0.000416  -0.000010  -0.000008
    33  H    0.000000   0.000076   0.000062  -0.000202  -0.000001  -0.000006
    34  H   -0.000000   0.000416  -0.000202  -0.001545   0.000004   0.000008
    35  H   -0.000000  -0.000010  -0.000001   0.000004  -0.000204   0.000056
    36  H    0.000000  -0.000008  -0.000006   0.000008   0.000056  -0.000697
    37  H   -0.000000   0.000030  -0.000048   0.000000   0.000003   0.000082
    38  Ru  -0.000007   0.001433  -0.001107  -0.001088   0.000626  -0.000069
    39  H   -0.000000  -0.000017   0.000003  -0.000006  -0.000001  -0.000000
              37         38         39
     1  O    0.000029   0.001716   0.000212
     2  O    0.000024  -0.042607   0.000056
     3  C    0.000174   0.003457   0.000046
     4  H    0.000002  -0.002927   0.000002
     5  N   -0.000622  -0.014679   0.000076
     6  C    0.000147   0.003339  -0.000003
     7  C   -0.000000   0.005097   0.000027
     8  C   -0.000000   0.000379   0.000018
     9  P    0.000017  -0.006604  -0.000529
    10  H    0.000012  -0.000162   0.000000
    11  C   -0.000848  -0.003522   0.000011
    12  C    0.000516   0.024806  -0.000087
    13  C   -0.000077   0.001604   0.000003
    14  N   -0.000019   0.002145  -0.000000
    15  C   -0.000000   0.000394  -0.000002
    16  C   -0.000002   0.002877  -0.000002
    17  C   -0.000006  -0.002694   0.000000
    18  H   -0.000000  -0.000223   0.000000
    19  H    0.000000  -0.000023   0.000000
    20  H   -0.000000   0.000083  -0.000000
    21  C    0.000000   0.000078  -0.000000
    22  C    0.000000   0.000670  -0.000000
    23  H    0.000000  -0.000002  -0.000000
    24  H   -0.000000   0.000012  -0.000000
    25  O   -0.000170   0.000284  -0.000022
    26  H    0.000000  -0.000598   0.000000
    27  H    0.000000  -0.000784  -0.000011
    28  H    0.000000  -0.001211   0.000001
    29  H   -0.000000  -0.000011   0.000015
    30  H   -0.000000   0.000219   0.000008
    31  H   -0.000000  -0.000007  -0.000000
    32  H    0.000030   0.001433  -0.000017
    33  H   -0.000048  -0.001107   0.000003
    34  H    0.000000  -0.001088  -0.000006
    35  H    0.000003   0.000626  -0.000001
    36  H    0.000082  -0.000069  -0.000000
    37  H    0.000384   0.001089  -0.000026
    38  Ru   0.001089   0.083838   0.000082
    39  H   -0.000026   0.000082  -0.000128
 Mulliken charges and spin densities:
               1          2
     1  O   -0.488390  -0.001194
     2  O   -0.456098   0.876963
     3  C    0.029868   0.005547
     4  H    0.115520  -0.000185
     5  N   -0.396912   0.013086
     6  C    0.130800   0.012633
     7  C   -0.187941   0.006364
     8  C   -0.195094  -0.000427
     9  P    0.072690   0.007034
    10  H    0.075582  -0.000828
    11  C    0.007759  -0.001197
    12  C    0.054332   0.010774
    13  C    0.062860  -0.003712
    14  N   -0.332643   0.000620
    15  C   -0.088442  -0.000502
    16  C    0.086392  -0.001496
    17  C   -0.044357   0.001693
    18  H    0.037684  -0.000087
    19  H    0.123019  -0.000021
    20  H    0.092661  -0.000164
    21  C   -0.048587   0.001961
    22  C    0.082624  -0.002331
    23  H    0.036351  -0.000087
    24  H    0.049811   0.000108
    25  O   -0.152463   0.022489
    26  H    0.093710  -0.001631
    27  H    0.108542  -0.000403
    28  H    0.107481  -0.000345
    29  H    0.103888   0.000031
    30  H    0.105197   0.000088
    31  H    0.092979  -0.000065
    32  H    0.095907   0.000341
    33  H    0.062850  -0.000214
    34  H    0.099441  -0.000887
    35  H    0.101688   0.000022
    36  H    0.066183  -0.000307
    37  H    0.103898   0.000690
    38  Ru  -0.000290   0.055909
    39  H    0.191500  -0.000274
 Sum of Mulliken charges =  -0.00000   1.00000
 Mulliken charges and spin densities with hydrogens summed into heavy atoms:
               1          2
     1  O   -0.296890  -0.001468
     2  O   -0.456098   0.876963
     3  C    0.288067   0.004787
     5  N   -0.396912   0.013086
     6  C    0.321903   0.011621
     7  C    0.121791   0.003985
     8  C    0.106969  -0.000373
     9  P    0.072690   0.007034
    11  C    0.279527  -0.000791
    12  C    0.054332   0.010774
    13  C    0.062860  -0.003712
    14  N   -0.332643   0.000620
    15  C    0.127238  -0.000686
    16  C    0.086392  -0.001496
    17  C   -0.006673   0.001606
    21  C   -0.012235   0.001873
    22  C    0.132435  -0.002223
    25  O   -0.152463   0.022489
    38  Ru  -0.000290   0.055909
 Electronic spatial extent (au):  <R**2>=           4969.7357
 Charge=             -0.0000 electrons
 Dipole moment (field-independent basis, Debye):
    X=              1.0907    Y=             11.3414    Z=              5.1024  Tot=             12.4840
 Quadrupole moment (field-independent basis, Debye-Ang):
   XX=            -93.4355   YY=           -128.3286   ZZ=           -151.7524
   XY=             -4.2285   XZ=              0.1389   YZ=             -5.0157
 Traceless Quadrupole moment (field-independent basis, Debye-Ang):
   XX=             31.0700   YY=             -3.8231   ZZ=            -27.2469
   XY=             -4.2285   XZ=              0.1389   YZ=             -5.0157
 Octapole moment (field-independent basis, Debye-Ang**2):
  XXX=             -8.9024  YYY=             73.1029  ZZZ=              6.1743  XYY=             15.9840
  XXY=             -1.9922  XXZ=             -9.3140  XZZ=             -3.8833  YZZ=             -0.5944
  YYZ=             26.8189  XYZ=             -0.2307
 Hexadecapole moment (field-independent basis, Debye-Ang**3):
 XXXX=          -2550.7355 YYYY=          -2344.8669 ZZZZ=          -1208.8612 XXXY=             13.0893
 XXXZ=             -6.8648 YYYX=             64.1001 YYYZ=            -18.5786 ZZZX=             18.2176
 ZZZY=             -1.1877 XXYY=           -777.9828 XXZZ=           -644.5921 YYZZ=           -658.1061
 XXYZ=             -9.9824 YYXZ=            -13.0202 ZZXY=            -30.1670
 N-N= 1.993126861257D+03 E-N=-6.873476395780D+03  KE= 1.172889111549D+03
 1\1\GINC-NODE260\SP\UPBE1PBE TD-FC\GenECP\C12H20N2O3P1Ru1(2)\JS1212\29
 -Jun-2020\0\\# genecp pbe1pbe EmpiricalDispersion=GD3BJ scrf=(SMD,solv
 ent=water) td=nstates=25 geom=allcheck\\Title Card Required\\0,2\O,0,-
 0.5796653818,-2.7585529562,-0.451215585\O,0,0.1248173968,-0.5268376468
 ,-2.0099633455\C,0,2.3150289021,-2.3506677327,-0.9319652376\H,0,2.3304
 684256,-0.0122999733,-1.7268061185\N,0,2.0264558335,-1.202582386,-0.06
 71971291\C,0,2.568047091,0.035146358,-0.650398959\C,0,-2.6474842072,0.
 7505484487,-1.9403049729\C,0,-3.6811597264,-0.1937090003,0.5901631637\
 P,0,-2.1296807025,0.2835230083,-0.2558129652\H,0,3.6639856477,0.101157
 6617,-0.5226412974\C,0,2.5627350358,-1.4184778035,1.2754501675\C,0,-0.
 4853502923,-1.0725297045,1.7518465157\C,0,1.8829077266,1.2696631795,-0
 .1340384921\N,0,0.5654728802,1.124330342,0.1140685351\C,0,-1.673411663
 6,1.8944567241,0.5960135026\C,0,-0.2160866262,2.1898213963,0.390001064
 5\C,0,2.4912962463,2.5148236574,-0.0351578638\H,0,3.561764516,2.612333
 048,-0.219648147\H,0,-1.8533849788,1.7068622474,1.6697837884\H,0,-2.30
 30080805,2.7480678164,0.3012548446\C,0,0.3389863996,3.4650382776,0.467
 2312242\C,0,1.7077937101,3.6253536158,0.2714981914\H,0,-0.3006503032,4
 .3209019403,0.6852965546\H,0,2.1609002959,4.615390945,0.3450886523\O,0
 ,-0.7403080944,-1.2524167364,2.8705588169\H,0,-3.4133389269,1.53994051
 36,-1.9310846729\H,0,-3.0372876584,-0.1518180015,-2.4330745689\H,0,-1.
 7445124959,1.0516855945,-2.4881667592\H,0,-3.4609690382,-0.4237734461,
 1.6424055327\H,0,-4.0657612042,-1.1052587731,0.109801071\H,0,-4.443576
 2128,0.59766911,0.5305771572\H,0,1.817166546,-3.2304970238,-0.50623619
 94\H,0,3.4056683064,-2.512718812,-1.0219157951\H,0,1.8589037063,-2.152
 4941286,-1.9103460364\H,0,2.3452062847,-0.5464988385,1.9083034301\H,0,
 3.6578781252,-1.5781969959,1.2446602405\H,0,2.0807678716,-2.3007948236
 ,1.7152184799\Ru,0,-0.1760561748,-0.7893514793,-0.0696738804\H,0,-1.33
 10891793,-3.0629076224,0.0702470927\\Version=ES64L-G16RevA.03\State=2-
 A\HF=-1239.8774702\S2=0.756918\S2-1=0.\S2A=0.750034\RMSD=8.382e-09\PG=
 C01 [X(C12H20N2O3P1Ru1)]\\@


 Any fool can criticize, condemn, and complain -- and most do.
 -- Dale Carnegie
 Job cpu time:       0 days 12 hours  6 minutes 49.1 seconds.
 Elapsed time:       0 days  0 hours 36 minutes 26.1 seconds.
 File lengths (MBytes):  RWF=   2179 Int=      0 D2E=      0 Chk=    160 Scr=      1
 Normal termination of Gaussian 16 at Mon Jun 29 15:25:06 2020.
