 Entering Gaussian System, Link 0=g16
 Initial command:
 /cluster/chemistry/gaussian/g16/l1.exe "/scratch/js1212.752227/scratch/Gau-8520.inp" -scrdir="/scratch/js1212.752227/scratch/"
 Entering Link 1 = /cluster/chemistry/gaussian/g16/l1.exe PID=      8521.
  
 Copyright (c) 1988,1990,1992,1993,1995,1998,2003,2009,2016,
            Gaussian, Inc.  All Rights Reserved.
  
 This is part of the Gaussian(R) 16 program.  It is based on
 the Gaussian(R) 09 system (copyright 2009, Gaussian, Inc.),
 the Gaussian(R) 03 system (copyright 2003, Gaussian, Inc.),
 the Gaussian(R) 98 system (copyright 1998, Gaussian, Inc.),
 the Gaussian(R) 94 system (copyright 1995, Gaussian, Inc.),
 the Gaussian 92(TM) system (copyright 1992, Gaussian, Inc.),
 the Gaussian 90(TM) system (copyright 1990, Gaussian, Inc.),
 the Gaussian 88(TM) system (copyright 1988, Gaussian, Inc.),
 the Gaussian 86(TM) system (copyright 1986, Carnegie Mellon
 University), and the Gaussian 82(TM) system (copyright 1983,
 Carnegie Mellon University). Gaussian is a federally registered
 trademark of Gaussian, Inc.
  
 This software contains proprietary and confidential information,
 including trade secrets, belonging to Gaussian, Inc.
  
 This software is provided under written license and may be
 used, copied, transmitted, or stored only in accord with that
 written license.
  
 The following legend is applicable only to US Government
 contracts under FAR:
  
                    RESTRICTED RIGHTS LEGEND
  
 Use, reproduction and disclosure by the US Government is
 subject to restrictions as set forth in subparagraphs (a)
 and (c) of the Commercial Computer Software - Restricted
 Rights clause in FAR 52.227-19.
  
 Gaussian, Inc.
 340 Quinnipiac St., Bldg. 40, Wallingford CT 06492
  
  
 ---------------------------------------------------------------
 Warning -- This program may not be used in any manner that
 competes with the business of Gaussian, Inc. or will provide
 assistance to any competitor of Gaussian, Inc.  The licensee
 of this program is prohibited from giving any competitor of
 Gaussian, Inc. access to this program.  By using this program,
 the user acknowledges that Gaussian, Inc. is engaged in the
 business of creating and licensing software in the field of
 computational chemistry and represents and warrants to the
 licensee that it is not a competitor of Gaussian, Inc. and that
 it will not use this program in any manner prohibited above.
 ---------------------------------------------------------------
  

 Cite this work as:
 Gaussian 16, Revision A.03,
 M. J. Frisch, G. W. Trucks, H. B. Schlegel, G. E. Scuseria, 
 M. A. Robb, J. R. Cheeseman, G. Scalmani, V. Barone, 
 G. A. Petersson, H. Nakatsuji, X. Li, M. Caricato, A. V. Marenich, 
 J. Bloino, B. G. Janesko, R. Gomperts, B. Mennucci, H. P. Hratchian, 
 J. V. Ortiz, A. F. Izmaylov, J. L. Sonnenberg, D. Williams-Young, 
 F. Ding, F. Lipparini, F. Egidi, J. Goings, B. Peng, A. Petrone, 
 T. Henderson, D. Ranasinghe, V. G. Zakrzewski, J. Gao, N. Rega, 
 G. Zheng, W. Liang, M. Hada, M. Ehara, K. Toyota, R. Fukuda, 
 J. Hasegawa, M. Ishida, T. Nakajima, Y. Honda, O. Kitao, H. Nakai, 
 T. Vreven, K. Throssell, J. A. Montgomery, Jr., J. E. Peralta, 
 F. Ogliaro, M. J. Bearpark, J. J. Heyd, E. N. Brothers, K. N. Kudin, 
 V. N. Staroverov, T. A. Keith, R. Kobayashi, J. Normand, 
 K. Raghavachari, A. P. Rendell, J. C. Burant, S. S. Iyengar, 
 J. Tomasi, M. Cossi, J. M. Millam, M. Klene, C. Adamo, R. Cammi, 
 J. W. Ochterski, R. L. Martin, K. Morokuma, O. Farkas, 
 J. B. Foresman, and D. J. Fox, Gaussian, Inc., Wallingford CT, 2016.
 
 ******************************************
 Gaussian 16:  ES64L-G16RevA.03 25-Dec-2016
                28-Jun-2020 
 ******************************************
 %rwf=/scratch/js1212.752227/GMe-Cis-Mono-D-0-GPOF.rwf
 %nosave
 %nprocshared=20
 Will use up to   20 processors via shared memory.
 %mem=3000MB
 %chk=/scratch/js1212.752227/GMe-Cis-Mono-D-0-GPOF.chk
 ---------------------------------------------------
 # opt freq genecp pbe1pbe EmpiricalDispersion=GD3BJ
 ---------------------------------------------------
 1/18=20,19=15,26=3,38=1/1,3;
 2/9=110,12=2,17=6,18=5,40=1/2;
 3/5=7,11=2,16=1,17=8,25=1,30=1,71=1,74=-13,124=41/1,2,3;
 4//1;
 5/5=2,38=5/2;
 6/7=2,8=2,9=2,10=2,28=1/1;
 7//1,2,3,16;
 1/18=20,19=15,26=3/3(2);
 2/9=110/2;
 99//99;
 2/9=110/2;
 3/5=7,6=1,11=2,16=1,17=8,25=1,30=1,71=1,74=-13,82=7,124=41/1,2,3;
 4/5=5,16=3,69=1/1;
 5/5=2,38=5/2;
 7//1,2,3,16;
 1/18=20,19=15,26=3/3(-5);
 2/9=110/2;
 6/7=2,8=2,9=2,10=2,19=2,28=1/1;
 99/9=1/99;
 -------------------
 Title Card Required
 -------------------
 Symbolic Z-matrix:
 Charge =  0 Multiplicity = 2
 O                    -0.76222  -2.54909  -0.65337 
 O                     0.16406  -0.45287  -2.07859 
 C                     2.33988  -2.36286  -0.88077 
 H                     2.30021  -0.031    -1.70638 
 N                     2.01058  -1.20882  -0.03692 
 C                     2.56124   0.0212   -0.63585 
 C                    -2.64847   0.77792  -1.91629 
 C                    -3.67177  -0.21121   0.61681 
 P                    -2.14003   0.29978  -0.2343 
 H                     3.65755   0.07251  -0.50923 
 C                     2.538    -1.39749   1.31604 
 C                    -0.51098  -1.1826    1.70739 
 C                     1.88539   1.26211  -0.12919 
 N                     0.57701   1.11606   0.14893 
 C                    -1.65814   1.8879    0.62987 
 C                    -0.2044    2.186     0.39617 
 C                     2.49077   2.51239  -0.07915 
 H                     3.55684   2.60987  -0.28781 
 H                    -1.81587   1.68613   1.7046 
 H                    -2.29542   2.74217   0.35558 
 C                     0.34046   3.4668    0.42331 
 C                     1.70653   3.62787   0.20487 
 H                    -0.30173   4.32584   0.62064 
 H                     2.15489   4.62219   0.23933 
 O                    -0.76164  -1.41115   2.81938 
 H                    -3.3658    1.61159  -1.9108 
 H                    -3.10138  -0.10405  -2.39254 
 H                    -1.72614   1.01422  -2.46663 
 H                    -3.4413   -0.43462   1.66792 
 H                    -4.02653  -1.13628   0.14 
 H                    -4.45333   0.56076   0.55559 
 H                     1.88021  -3.25885  -0.44531 
 H                     3.43549  -2.49619  -0.95716 
 H                     1.90101  -2.1893   -1.87047 
 H                     2.29222  -0.52347   1.9344 
 H                     3.63659  -1.52916   1.29449 
 H                     2.07607  -2.28559   1.76518 
 Ru                   -0.18816  -0.81964  -0.07228 
 H                    -1.24822  -3.01474  -0.03364 
 

 GradGradGradGradGradGradGradGradGradGradGradGradGradGradGradGradGradGrad
 Berny optimization.
 Initialization pass.
                           ----------------------------
                           !    Initial Parameters    !
                           ! (Angstroms and Degrees)  !
 --------------------------                            --------------------------
 ! Name  Definition              Value          Derivative Info.                !
 --------------------------------------------------------------------------------
 ! R1    R(1,38)                 1.9126         estimate D2E/DX2                !
 ! R2    R(1,39)                 0.9149         estimate D2E/DX2                !
 ! R3    R(2,38)                 2.0697         estimate D2E/DX2                !
 ! R4    R(3,5)                  1.4671         estimate D2E/DX2                !
 ! R5    R(3,32)                 1.0971         estimate D2E/DX2                !
 ! R6    R(3,33)                 1.1063         estimate D2E/DX2                !
 ! R7    R(3,34)                 1.0965         estimate D2E/DX2                !
 ! R8    R(4,6)                  1.1031         estimate D2E/DX2                !
 ! R9    R(5,6)                  1.4748         estimate D2E/DX2                !
 ! R10   R(5,11)                 1.4643         estimate D2E/DX2                !
 ! R11   R(5,38)                 2.2332         estimate D2E/DX2                !
 ! R12   R(6,10)                 1.1048         estimate D2E/DX2                !
 ! R13   R(6,13)                 1.5011         estimate D2E/DX2                !
 ! R14   R(7,9)                  1.821          estimate D2E/DX2                !
 ! R15   R(7,26)                 1.0998         estimate D2E/DX2                !
 ! R16   R(7,27)                 1.0999         estimate D2E/DX2                !
 ! R17   R(7,28)                 1.0997         estimate D2E/DX2                !
 ! R18   R(8,9)                  1.8253         estimate D2E/DX2                !
 ! R19   R(8,29)                 1.099          estimate D2E/DX2                !
 ! R20   R(8,30)                 1.0995         estimate D2E/DX2                !
 ! R21   R(8,31)                 1.1002         estimate D2E/DX2                !
 ! R22   R(9,15)                 1.8711         estimate D2E/DX2                !
 ! R23   R(9,38)                 2.2559         estimate D2E/DX2                !
 ! R24   R(11,35)                1.0985         estimate D2E/DX2                !
 ! R25   R(11,36)                1.1067         estimate D2E/DX2                !
 ! R26   R(11,37)                1.0972         estimate D2E/DX2                !
 ! R27   R(12,25)                1.1626         estimate D2E/DX2                !
 ! R28   R(12,38)                1.8448         estimate D2E/DX2                !
 ! R29   R(13,14)                1.3456         estimate D2E/DX2                !
 ! R30   R(13,17)                1.39           estimate D2E/DX2                !
 ! R31   R(14,16)                1.3478         estimate D2E/DX2                !
 ! R32   R(14,38)                2.0932         estimate D2E/DX2                !
 ! R33   R(15,16)                1.5023         estimate D2E/DX2                !
 ! R34   R(15,19)                1.1048         estimate D2E/DX2                !
 ! R35   R(15,20)                1.1005         estimate D2E/DX2                !
 ! R36   R(16,21)                1.3921         estimate D2E/DX2                !
 ! R37   R(17,18)                1.0907         estimate D2E/DX2                !
 ! R38   R(17,22)                1.3928         estimate D2E/DX2                !
 ! R39   R(21,22)                1.3928         estimate D2E/DX2                !
 ! R40   R(21,23)                1.0905         estimate D2E/DX2                !
 ! R41   R(22,24)                1.0913         estimate D2E/DX2                !
 ! A1    A(38,1,39)            114.4464         estimate D2E/DX2                !
 ! A2    A(5,3,32)             108.6669         estimate D2E/DX2                !
 ! A3    A(5,3,33)             110.9038         estimate D2E/DX2                !
 ! A4    A(5,3,34)             107.7477         estimate D2E/DX2                !
 ! A5    A(32,3,33)            110.1144         estimate D2E/DX2                !
 ! A6    A(32,3,34)            108.6526         estimate D2E/DX2                !
 ! A7    A(33,3,34)            110.679          estimate D2E/DX2                !
 ! A8    A(3,5,6)              109.7962         estimate D2E/DX2                !
 ! A9    A(3,5,11)             110.4412         estimate D2E/DX2                !
 ! A10   A(3,5,38)             110.4245         estimate D2E/DX2                !
 ! A11   A(6,5,11)             110.3778         estimate D2E/DX2                !
 ! A12   A(6,5,38)             102.4654         estimate D2E/DX2                !
 ! A13   A(11,5,38)            113.0605         estimate D2E/DX2                !
 ! A14   A(4,6,5)              105.4442         estimate D2E/DX2                !
 ! A15   A(4,6,10)             110.3792         estimate D2E/DX2                !
 ! A16   A(4,6,13)             105.0777         estimate D2E/DX2                !
 ! A17   A(5,6,10)             111.2671         estimate D2E/DX2                !
 ! A18   A(5,6,13)             112.5996         estimate D2E/DX2                !
 ! A19   A(10,6,13)            111.6972         estimate D2E/DX2                !
 ! A20   A(9,7,26)             112.1181         estimate D2E/DX2                !
 ! A21   A(9,7,27)             107.7193         estimate D2E/DX2                !
 ! A22   A(9,7,28)             106.5273         estimate D2E/DX2                !
 ! A23   A(26,7,27)            109.9626         estimate D2E/DX2                !
 ! A24   A(26,7,28)            112.7455         estimate D2E/DX2                !
 ! A25   A(27,7,28)            107.5152         estimate D2E/DX2                !
 ! A26   A(9,8,29)             109.0798         estimate D2E/DX2                !
 ! A27   A(9,8,30)             107.703          estimate D2E/DX2                !
 ! A28   A(9,8,31)             111.9466         estimate D2E/DX2                !
 ! A29   A(29,8,30)            108.1423         estimate D2E/DX2                !
 ! A30   A(29,8,31)            110.1702         estimate D2E/DX2                !
 ! A31   A(30,8,31)            109.6936         estimate D2E/DX2                !
 ! A32   A(7,9,8)              105.6574         estimate D2E/DX2                !
 ! A33   A(7,9,15)             105.9997         estimate D2E/DX2                !
 ! A34   A(7,9,38)             115.9888         estimate D2E/DX2                !
 ! A35   A(8,9,15)             103.7906         estimate D2E/DX2                !
 ! A36   A(8,9,38)             123.619          estimate D2E/DX2                !
 ! A37   A(15,9,38)             99.5067         estimate D2E/DX2                !
 ! A38   A(5,11,35)            109.6942         estimate D2E/DX2                !
 ! A39   A(5,11,36)            110.7866         estimate D2E/DX2                !
 ! A40   A(5,11,37)            109.3217         estimate D2E/DX2                !
 ! A41   A(35,11,36)           109.1316         estimate D2E/DX2                !
 ! A42   A(35,11,37)           108.6264         estimate D2E/DX2                !
 ! A43   A(36,11,37)           109.2449         estimate D2E/DX2                !
 ! A44   A(6,13,14)            114.6975         estimate D2E/DX2                !
 ! A45   A(6,13,17)            124.0293         estimate D2E/DX2                !
 ! A46   A(14,13,17)           120.9085         estimate D2E/DX2                !
 ! A47   A(13,14,16)           121.0313         estimate D2E/DX2                !
 ! A48   A(13,14,38)           115.7208         estimate D2E/DX2                !
 ! A49   A(16,14,38)           122.7913         estimate D2E/DX2                !
 ! A50   A(9,15,16)            110.2301         estimate D2E/DX2                !
 ! A51   A(9,15,19)            104.9213         estimate D2E/DX2                !
 ! A52   A(9,15,20)            113.2406         estimate D2E/DX2                !
 ! A53   A(16,15,19)           109.0091         estimate D2E/DX2                !
 ! A54   A(16,15,20)           111.5652         estimate D2E/DX2                !
 ! A55   A(19,15,20)           107.5501         estimate D2E/DX2                !
 ! A56   A(14,16,15)           115.5981         estimate D2E/DX2                !
 ! A57   A(14,16,21)           120.4659         estimate D2E/DX2                !
 ! A58   A(15,16,21)           123.936          estimate D2E/DX2                !
 ! A59   A(13,17,18)           119.947          estimate D2E/DX2                !
 ! A60   A(13,17,22)           118.8471         estimate D2E/DX2                !
 ! A61   A(18,17,22)           121.184          estimate D2E/DX2                !
 ! A62   A(16,21,22)           119.158          estimate D2E/DX2                !
 ! A63   A(16,21,23)           119.8524         estimate D2E/DX2                !
 ! A64   A(22,21,23)           120.9883         estimate D2E/DX2                !
 ! A65   A(17,22,21)           119.4472         estimate D2E/DX2                !
 ! A66   A(17,22,24)           120.3193         estimate D2E/DX2                !
 ! A67   A(21,22,24)           120.2253         estimate D2E/DX2                !
 ! A68   A(1,38,2)              85.2278         estimate D2E/DX2                !
 ! A69   A(1,38,5)              98.2065         estimate D2E/DX2                !
 ! A70   A(1,38,9)              99.6239         estimate D2E/DX2                !
 ! A71   A(1,38,12)             93.5928         estimate D2E/DX2                !
 ! A72   A(2,38,5)              83.0317         estimate D2E/DX2                !
 ! A73   A(2,38,9)              89.4092         estimate D2E/DX2                !
 ! A74   A(2,38,14)             82.8978         estimate D2E/DX2                !
 ! A75   A(5,38,9)             159.9655         estimate D2E/DX2                !
 ! A76   A(5,38,12)             97.0496         estimate D2E/DX2                !
 ! A77   A(5,38,14)             78.438          estimate D2E/DX2                !
 ! A78   A(9,38,12)             90.8887         estimate D2E/DX2                !
 ! A79   A(9,38,14)             82.2409         estimate D2E/DX2                !
 ! A80   A(12,38,14)            98.2774         estimate D2E/DX2                !
 ! A81   L(25,12,38,8,-1)      177.7003         estimate D2E/DX2                !
 ! A82   L(1,38,14,2,-1)       168.1256         estimate D2E/DX2                !
 ! A83   L(2,38,12,1,-1)       178.8206         estimate D2E/DX2                !
 ! A84   L(25,12,38,8,-2)      180.6008         estimate D2E/DX2                !
 ! A85   L(1,38,14,2,-2)       181.9627         estimate D2E/DX2                !
 ! A86   L(2,38,12,1,-2)       179.8992         estimate D2E/DX2                !
 ! D1    D(39,1,38,2)         -163.8986         estimate D2E/DX2                !
 ! D2    D(39,1,38,5)          113.8624         estimate D2E/DX2                !
 ! D3    D(39,1,38,9)          -75.3111         estimate D2E/DX2                !
 ! D4    D(39,1,38,12)          16.2021         estimate D2E/DX2                !
 ! D5    D(32,3,5,6)          -177.2344         estimate D2E/DX2                !
 ! D6    D(32,3,5,11)           60.8204         estimate D2E/DX2                !
 ! D7    D(32,3,5,38)          -64.9729         estimate D2E/DX2                !
 ! D8    D(33,3,5,6)            61.5943         estimate D2E/DX2                !
 ! D9    D(33,3,5,11)          -60.3508         estimate D2E/DX2                !
 ! D10   D(33,3,5,38)          173.8559         estimate D2E/DX2                !
 ! D11   D(34,3,5,6)           -59.6804         estimate D2E/DX2                !
 ! D12   D(34,3,5,11)          178.3744         estimate D2E/DX2                !
 ! D13   D(34,3,5,38)           52.5811         estimate D2E/DX2                !
 ! D14   D(3,5,6,4)             45.7813         estimate D2E/DX2                !
 ! D15   D(3,5,6,10)           -73.9023         estimate D2E/DX2                !
 ! D16   D(3,5,6,13)           159.818          estimate D2E/DX2                !
 ! D17   D(11,5,6,4)           167.7643         estimate D2E/DX2                !
 ! D18   D(11,5,6,10)           48.0807         estimate D2E/DX2                !
 ! D19   D(11,5,6,13)          -78.1991         estimate D2E/DX2                !
 ! D20   D(38,5,6,4)           -71.5681         estimate D2E/DX2                !
 ! D21   D(38,5,6,10)          168.7483         estimate D2E/DX2                !
 ! D22   D(38,5,6,13)           42.4685         estimate D2E/DX2                !
 ! D23   D(3,5,11,35)          179.5168         estimate D2E/DX2                !
 ! D24   D(3,5,11,36)           58.9722         estimate D2E/DX2                !
 ! D25   D(3,5,11,37)          -61.4715         estimate D2E/DX2                !
 ! D26   D(6,5,11,35)           57.915          estimate D2E/DX2                !
 ! D27   D(6,5,11,36)          -62.6296         estimate D2E/DX2                !
 ! D28   D(6,5,11,37)          176.9267         estimate D2E/DX2                !
 ! D29   D(38,5,11,35)         -56.189          estimate D2E/DX2                !
 ! D30   D(38,5,11,36)        -176.7336         estimate D2E/DX2                !
 ! D31   D(38,5,11,37)          62.8227         estimate D2E/DX2                !
 ! D32   D(3,5,38,1)            20.557          estimate D2E/DX2                !
 ! D33   D(3,5,38,2)           -63.571          estimate D2E/DX2                !
 ! D34   D(3,5,38,9)          -132.1328         estimate D2E/DX2                !
 ! D35   D(3,5,38,12)          115.2393         estimate D2E/DX2                !
 ! D36   D(3,5,38,14)         -147.7088         estimate D2E/DX2                !
 ! D37   D(6,5,38,1)           137.4573         estimate D2E/DX2                !
 ! D38   D(6,5,38,2)            53.3294         estimate D2E/DX2                !
 ! D39   D(6,5,38,9)           -15.2325         estimate D2E/DX2                !
 ! D40   D(6,5,38,12)         -127.8604         estimate D2E/DX2                !
 ! D41   D(6,5,38,14)          -30.8085         estimate D2E/DX2                !
 ! D42   D(11,5,38,1)         -103.7463         estimate D2E/DX2                !
 ! D43   D(11,5,38,2)          172.1257         estimate D2E/DX2                !
 ! D44   D(11,5,38,9)          103.5639         estimate D2E/DX2                !
 ! D45   D(11,5,38,12)          -9.064          estimate D2E/DX2                !
 ! D46   D(11,5,38,14)          87.9879         estimate D2E/DX2                !
 ! D47   D(4,6,13,14)           80.5967         estimate D2E/DX2                !
 ! D48   D(4,6,13,17)          -92.5053         estimate D2E/DX2                !
 ! D49   D(5,6,13,14)          -33.6629         estimate D2E/DX2                !
 ! D50   D(5,6,13,17)          153.235          estimate D2E/DX2                !
 ! D51   D(10,6,13,14)        -159.7111         estimate D2E/DX2                !
 ! D52   D(10,6,13,17)          27.1868         estimate D2E/DX2                !
 ! D53   D(26,7,9,8)            60.5139         estimate D2E/DX2                !
 ! D54   D(26,7,9,15)          -49.2354         estimate D2E/DX2                !
 ! D55   D(26,7,9,38)         -158.5607         estimate D2E/DX2                !
 ! D56   D(27,7,9,8)           -60.5998         estimate D2E/DX2                !
 ! D57   D(27,7,9,15)         -170.3491         estimate D2E/DX2                !
 ! D58   D(27,7,9,38)           80.3256         estimate D2E/DX2                !
 ! D59   D(28,7,9,8)          -175.7108         estimate D2E/DX2                !
 ! D60   D(28,7,9,15)           74.5399         estimate D2E/DX2                !
 ! D61   D(28,7,9,38)          -34.7854         estimate D2E/DX2                !
 ! D62   D(29,8,9,7)          -175.4045         estimate D2E/DX2                !
 ! D63   D(29,8,9,15)          -64.0864         estimate D2E/DX2                !
 ! D64   D(29,8,9,38)           47.4701         estimate D2E/DX2                !
 ! D65   D(30,8,9,7)            67.4493         estimate D2E/DX2                !
 ! D66   D(30,8,9,15)          178.7675         estimate D2E/DX2                !
 ! D67   D(30,8,9,38)          -69.676          estimate D2E/DX2                !
 ! D68   D(31,8,9,7)           -53.2143         estimate D2E/DX2                !
 ! D69   D(31,8,9,15)           58.1038         estimate D2E/DX2                !
 ! D70   D(31,8,9,38)          169.6604         estimate D2E/DX2                !
 ! D71   D(7,9,15,16)          -88.6712         estimate D2E/DX2                !
 ! D72   D(7,9,15,19)          154.1061         estimate D2E/DX2                !
 ! D73   D(7,9,15,20)           37.1019         estimate D2E/DX2                !
 ! D74   D(8,9,15,16)          160.2609         estimate D2E/DX2                !
 ! D75   D(8,9,15,19)           43.0383         estimate D2E/DX2                !
 ! D76   D(8,9,15,20)          -73.966          estimate D2E/DX2                !
 ! D77   D(38,9,15,16)          32.0072         estimate D2E/DX2                !
 ! D78   D(38,9,15,19)         -85.2154         estimate D2E/DX2                !
 ! D79   D(38,9,15,20)         157.7803         estimate D2E/DX2                !
 ! D80   D(7,9,38,1)           -76.9403         estimate D2E/DX2                !
 ! D81   D(7,9,38,2)             8.1184         estimate D2E/DX2                !
 ! D82   D(7,9,38,5)            75.6344         estimate D2E/DX2                !
 ! D83   D(7,9,38,12)         -170.736          estimate D2E/DX2                !
 ! D84   D(7,9,38,14)           91.031          estimate D2E/DX2                !
 ! D85   D(8,9,38,1)            56.2695         estimate D2E/DX2                !
 ! D86   D(8,9,38,2)           141.3282         estimate D2E/DX2                !
 ! D87   D(8,9,38,5)          -151.1558         estimate D2E/DX2                !
 ! D88   D(8,9,38,12)          -37.5261         estimate D2E/DX2                !
 ! D89   D(8,9,38,14)         -135.7592         estimate D2E/DX2                !
 ! D90   D(15,9,38,1)          169.9467         estimate D2E/DX2                !
 ! D91   D(15,9,38,2)         -104.9946         estimate D2E/DX2                !
 ! D92   D(15,9,38,5)          -37.4786         estimate D2E/DX2                !
 ! D93   D(15,9,38,12)          76.151          estimate D2E/DX2                !
 ! D94   D(15,9,38,14)         -22.0821         estimate D2E/DX2                !
 ! D95   D(6,13,14,16)        -168.8497         estimate D2E/DX2                !
 ! D96   D(6,13,14,38)           3.606          estimate D2E/DX2                !
 ! D97   D(17,13,14,16)          4.4885         estimate D2E/DX2                !
 ! D98   D(17,13,14,38)        176.9442         estimate D2E/DX2                !
 ! D99   D(6,13,17,18)          -8.5462         estimate D2E/DX2                !
 ! D100  D(6,13,17,22)         169.7723         estimate D2E/DX2                !
 ! D101  D(14,13,17,18)        178.7602         estimate D2E/DX2                !
 ! D102  D(14,13,17,22)         -2.9213         estimate D2E/DX2                !
 ! D103  D(13,14,16,15)        177.2881         estimate D2E/DX2                !
 ! D104  D(13,14,16,21)         -2.6722         estimate D2E/DX2                !
 ! D105  D(38,14,16,15)          5.3767         estimate D2E/DX2                !
 ! D106  D(38,14,16,21)       -174.5835         estimate D2E/DX2                !
 ! D107  D(13,14,38,2)         -68.2412         estimate D2E/DX2                !
 ! D108  D(13,14,38,5)          16.0599         estimate D2E/DX2                !
 ! D109  D(13,14,38,9)        -158.6131         estimate D2E/DX2                !
 ! D110  D(13,14,38,12)        111.6164         estimate D2E/DX2                !
 ! D111  D(16,14,38,2)         104.0679         estimate D2E/DX2                !
 ! D112  D(16,14,38,5)        -171.631          estimate D2E/DX2                !
 ! D113  D(16,14,38,9)          13.696          estimate D2E/DX2                !
 ! D114  D(16,14,38,12)        -76.0745         estimate D2E/DX2                !
 ! D115  D(9,15,16,14)         -26.3042         estimate D2E/DX2                !
 ! D116  D(9,15,16,21)         153.6545         estimate D2E/DX2                !
 ! D117  D(19,15,16,14)         88.3542         estimate D2E/DX2                !
 ! D118  D(19,15,16,21)        -91.6871         estimate D2E/DX2                !
 ! D119  D(20,15,16,14)       -153.0195         estimate D2E/DX2                !
 ! D120  D(20,15,16,21)         26.9392         estimate D2E/DX2                !
 ! D121  D(14,16,21,22)         -0.6362         estimate D2E/DX2                !
 ! D122  D(14,16,21,23)        179.7707         estimate D2E/DX2                !
 ! D123  D(15,16,21,22)        179.4071         estimate D2E/DX2                !
 ! D124  D(15,16,21,23)         -0.186          estimate D2E/DX2                !
 ! D125  D(13,17,22,21)         -0.3659         estimate D2E/DX2                !
 ! D126  D(13,17,22,24)       -179.328          estimate D2E/DX2                !
 ! D127  D(18,17,22,21)        177.931          estimate D2E/DX2                !
 ! D128  D(18,17,22,24)         -1.0311         estimate D2E/DX2                !
 ! D129  D(16,21,22,17)          2.0943         estimate D2E/DX2                !
 ! D130  D(16,21,22,24)       -178.9426         estimate D2E/DX2                !
 ! D131  D(23,21,22,17)       -178.3174         estimate D2E/DX2                !
 ! D132  D(23,21,22,24)          0.6457         estimate D2E/DX2                !
 --------------------------------------------------------------------------------
 Trust Radius=3.00D-01 FncErr=1.00D-07 GrdErr=1.00D-06 EigMax=2.50D+02 EigMin=1.00D-04
 Number of steps in this run=    234 maximum allowed number of steps=    234.
 GradGradGradGradGradGradGradGradGradGradGradGradGradGradGradGradGradGrad

                          Input orientation:                          
 ---------------------------------------------------------------------
 Center     Atomic      Atomic             Coordinates (Angstroms)
 Number     Number       Type             X           Y           Z
 ---------------------------------------------------------------------
      1          8           0       -0.762220   -2.549090   -0.653370
      2          8           0        0.164060   -0.452870   -2.078590
      3          6           0        2.339880   -2.362860   -0.880770
      4          1           0        2.300210   -0.031000   -1.706380
      5          7           0        2.010580   -1.208820   -0.036920
      6          6           0        2.561240    0.021200   -0.635850
      7          6           0       -2.648470    0.777920   -1.916290
      8          6           0       -3.671770   -0.211210    0.616810
      9         15           0       -2.140030    0.299780   -0.234300
     10          1           0        3.657550    0.072510   -0.509230
     11          6           0        2.538000   -1.397490    1.316040
     12          6           0       -0.510980   -1.182600    1.707390
     13          6           0        1.885390    1.262110   -0.129190
     14          7           0        0.577010    1.116060    0.148930
     15          6           0       -1.658140    1.887900    0.629870
     16          6           0       -0.204400    2.186000    0.396170
     17          6           0        2.490770    2.512390   -0.079150
     18          1           0        3.556840    2.609870   -0.287810
     19          1           0       -1.815870    1.686130    1.704600
     20          1           0       -2.295420    2.742170    0.355580
     21          6           0        0.340460    3.466800    0.423310
     22          6           0        1.706530    3.627870    0.204870
     23          1           0       -0.301730    4.325840    0.620640
     24          1           0        2.154890    4.622190    0.239330
     25          8           0       -0.761640   -1.411150    2.819380
     26          1           0       -3.365800    1.611590   -1.910800
     27          1           0       -3.101380   -0.104050   -2.392540
     28          1           0       -1.726140    1.014220   -2.466630
     29          1           0       -3.441300   -0.434620    1.667920
     30          1           0       -4.026530   -1.136280    0.140000
     31          1           0       -4.453330    0.560760    0.555590
     32          1           0        1.880210   -3.258850   -0.445310
     33          1           0        3.435490   -2.496190   -0.957160
     34          1           0        1.901010   -2.189300   -1.870470
     35          1           0        2.292220   -0.523470    1.934400
     36          1           0        3.636590   -1.529160    1.294490
     37          1           0        2.076070   -2.285590    1.765180
     38         44           0       -0.188160   -0.819640   -0.072280
     39          1           0       -1.248220   -3.014740   -0.033640
 ---------------------------------------------------------------------
                    Distance matrix (angstroms):
                    1          2          3          4          5
     1  O    0.000000
     2  O    2.698775   0.000000
     3  C    3.115994   3.133214   0.000000
     4  H    4.102205   2.208993   2.474020   0.000000
     5  N    3.140821   2.854735   1.467082   2.063551   0.000000
     6  C    4.201438   2.837730   2.406809   1.103130   1.474752
     7  C    4.027642   3.074331   5.985018   5.018750   5.402399
     8  C    3.942654   4.694377   6.558375   6.410478   5.806177
     9  P    3.192184   3.045771   5.251397   4.689581   4.420678
    10  H    5.140810   3.865668   2.793801   1.812803   2.139484
    11  C    4.012008   4.248695   2.407730   3.325487   1.464332
    12  C    2.739271   3.914311   4.027281   4.569770   3.066198
    13  C    4.670102   3.115172   3.729858   2.081283   2.475819
    14  N    3.983785   2.755706   4.033718   2.779809   2.737650
    15  C    4.704918   4.016886   6.027865   4.980841   4.847039
    16  C    4.881985   3.636459   5.366196   3.950807   4.076580
    17  C    6.044026   4.266627   4.943018   3.025396   3.752302
    18  H    6.738159   4.908994   5.153701   3.250485   4.127500
    19  H    4.960573   4.775769   6.352064   5.614752   5.104444
    20  H    5.600546   4.709831   7.005419   5.749954   5.857134
    21  C    6.210159   4.653432   6.299464   4.539912   4.986235
    22  C    6.707171   4.924007   6.121159   4.170451   4.852265
    23  H    7.007126   5.508073   7.346499   5.582756   6.034205
    24  H    7.793183   5.923883   7.076706   5.045699   5.839334
    25  O    3.654436   5.075956   4.921005   5.635800   3.985548
    26  H    5.066657   4.092684   7.029367   5.902843   6.353865
    27  H    3.804550   3.298991   6.082350   5.445487   5.735991
    28  H    4.112692   2.424002   5.518346   4.228707   4.980811
    29  H    4.127571   5.199547   6.605753   6.671862   5.764448
    30  H    3.644336   4.790640   6.563356   6.682694   6.040137
    31  H    4.975645   5.411713   7.533816   7.146817   6.727898
    32  H    2.743991   3.672370   1.097142   3.490804   2.094374
    33  H    4.209021   4.016842   1.106333   2.815556   2.129444
    34  H    2.950182   2.464853   1.096465   2.201033   2.082127
    35  H    4.486568   4.542922   3.363155   3.673945   2.105974
    36  H    4.917717   4.959288   2.666134   3.610487   2.125836
    37  H    3.738276   4.667892   2.660191   4.145497   2.100306
    38  Ru   1.912644   2.069749   3.070207   3.079646   2.233197
    39  H    0.914927   3.569248   3.743934   4.928704   3.725740
                    6          7          8          9         10
     6  C    0.000000
     7  C    5.417862   0.000000
     8  C    6.361885   2.905532   0.000000
     9  P    4.726604   1.821049   1.825302   0.000000
    10  H    1.104790   6.499485   7.420741   5.808543   0.000000
    11  C    2.413109   6.486897   6.360615   5.212317   2.597288
    12  C    4.047029   4.641504   3.481890   2.936225   4.885217
    13  C    1.501111   4.897352   5.797346   4.140185   2.167978
    14  N    2.398284   3.844892   4.475789   2.862776   3.318418
    15  C    4.784327   2.948854   2.908804   1.871131   5.731470
    16  C    3.660627   3.647415   4.221132   2.775244   4.494580
    17  C    2.553607   5.726714   6.773423   5.134591   2.738496
    18  H    2.795275   6.671871   7.812146   6.147659   2.548993
    19  H    5.235340   3.824776   2.868371   2.405489   6.120714
    20  H    5.654534   3.023957   3.268797   2.517414   6.581249
    21  C    4.233892   4.651613   5.446392   4.076187   4.836726
    22  C    3.800711   5.620281   6.620751   5.105397   4.117888
    23  H    5.320272   4.952872   5.651726   4.507708   5.919740
    24  H    4.701082   6.519001   7.579856   6.111783   4.849528
    25  O    5.003176   5.547858   3.841878   3.761941   5.728013
    26  H    6.267746   1.099817   3.131298   2.456422   7.325340
    27  H    5.930170   1.099915   3.064803   2.396930   7.018630
    28  H    4.766495   1.099729   3.846395   2.380132   5.805373
    29  H    6.445589   3.865927   1.099027   2.418902   7.442502
    30  H    6.733529   3.129144   1.099526   2.400261   7.805624
    31  H    7.135464   3.068366   1.100237   2.458331   8.195035
    32  H    3.355419   6.242454   6.421891   5.373146   3.776372
    33  H    2.684177   6.975263   7.629657   6.279044   2.616901
    34  H    2.616582   5.431783   6.415238   5.020217   3.170835
    35  H    2.641065   6.397800   6.115777   5.002583   2.861930
    36  H    2.699297   7.425207   7.457102   6.249125   2.412300
    37  H    3.364761   6.727525   6.217674   5.334563   3.637947
    38  Ru   2.929816   3.464924   3.602856   2.255914   3.971944
    39  H    4.908317   4.459747   3.762507   3.438260   5.815830
                   11         12         13         14         15
    11  C    0.000000
    12  C    3.081495   0.000000
    13  C    3.096460   3.884871   0.000000
    14  N    3.394932   2.982676   1.345563   0.000000
    15  C    5.373286   3.450362   3.677552   2.413076   0.000000
    16  C    4.605249   3.627776   2.344525   1.347776   1.502278
    17  C    4.151620   5.084799   1.390032   2.379965   4.255132
    18  H    4.435009   5.908537   2.152989   3.361785   5.344099
    19  H    5.349381   3.151564   4.152337   2.910492   1.104823
    20  H    6.435932   4.518344   4.461474   3.307233   1.100517
    21  C    5.411790   4.898033   2.748222   2.378491   2.555385
    22  C    5.213471   5.505955   2.395915   2.754657   3.811709
    23  H    6.426831   5.618516   3.838252   3.361158   2.789890
    24  H    6.127204   6.554209   3.390955   3.845884   4.708297
    25  O    3.625995   1.162578   4.779869   3.912809   4.059729
    26  H    7.370340   5.389693   5.556192   4.475912   3.073671
    27  H    6.872347   4.968186   5.644202   4.634468   3.896892
    28  H    6.189332   4.870839   4.309086   3.486549   3.218113
    29  H    6.066545   3.024534   5.872148   4.567139   3.106655
    30  H    6.674156   3.849409   6.385572   5.125007   3.872326
    31  H    7.300118   4.461846   6.414062   5.077209   3.095142
    32  H    2.645695   3.829193   4.532002   4.603400   6.337584
    33  H    2.679565   4.939633   4.148875   4.737372   6.905358
    34  H    3.344632   4.430826   3.865816   4.093453   5.961779
    35  H    1.098493   2.888584   2.759023   2.969496   4.808518
    36  H    1.106662   4.182455   3.589534   4.203633   6.336575
    37  H    1.097191   2.812962   4.026310   4.053476   5.714129
    38  Ru   3.113405   1.844770   2.938798   2.093168   3.159846
    39  H    4.332735   2.632764   5.302838   4.519768   4.964288
                   16         17         18         19         20
    16  C    0.000000
    17  C    2.756157   0.000000
    18  H    3.846352   1.090663   0.000000
    19  H    2.135110   4.734091   5.804223   0.000000
    20  H    2.164102   4.811383   5.889007   1.779057   0.000000
    21  C    1.392141   2.405659   3.403692   3.076077   2.734509
    22  C    2.401507   1.392837   2.168572   4.292650   4.101558
    23  H    2.153782   3.402406   4.319537   3.230427   2.559896
    24  H    3.394977   2.159977   2.508540   5.151155   4.832520
    25  O    4.372865   5.862918   6.668771   3.456484   5.066839
    26  H    3.955567   6.202080   7.180084   3.934330   2.749619
    27  H    4.627497   6.593154   7.491805   4.652294   4.037661
    28  H    3.447374   5.072170   5.933231   4.225952   3.357791
    29  H    4.354597   6.850298   7.878310   2.672255   3.623158
    30  H    5.070685   7.472350   8.469012   3.911648   4.252716
    31  H    4.551947   7.241014   8.311017   3.089155   3.074919
    32  H    5.890677   5.814986   6.105552   6.537274   7.354560
    33  H    6.083026   5.171970   5.151175   7.221741   7.874454
    34  H    5.358513   5.065820   5.317764   6.450991   6.847242
    35  H    3.992554   3.648322   4.044169   4.670283   5.848377
    36  H    5.418726   4.419719   4.431885   6.343154   7.369841
    37  H    5.202869   5.156951   5.511168   5.561063   6.809939
    38  Ru   3.041970   4.275411   5.082619   3.476439   4.160541
    39  H    5.321841   6.673176   7.401989   5.043995   5.864310
                   21         22         23         24         25
    21  C    0.000000
    22  C    1.392769   0.000000
    23  H    1.090549   2.166364   0.000000
    24  H    2.158919   1.091277   2.503638   0.000000
    25  O    5.545284   6.190254   6.161090   7.180808   0.000000
    26  H    4.756704   5.854056   4.812885   6.645659   6.188151
    27  H    5.703178   6.617383   6.044933   7.542709   5.860632
    28  H    4.317145   5.074574   4.746262   5.949963   5.895302
    29  H    5.574212   6.718965   5.797903   7.676558   3.075719
    30  H    6.351316   7.454483   6.628718   8.448656   4.232510
    31  H    5.607405   6.890141   5.604984   7.762977   4.758335
    32  H    6.954114   6.919524   7.963958   7.915489   4.588199
    33  H    6.858729   6.468673   7.937025   7.330952   5.749388
    34  H    6.299858   6.179347   7.314694   7.135272   5.448845
    35  H    4.692016   4.535188   5.654233   5.419404   3.301095
    36  H    6.048392   5.613142   7.088403   6.414663   4.656570
    37  H    6.156537   6.127001   7.118631   7.074734   3.150965
    38  Ru   4.347254   4.842211   5.193169   5.933001   3.006736
    39  H    6.689026   7.274043   7.430211   8.365308   3.308774
                   26         27         28         29         30
    26  H    0.000000
    27  H    1.801503   0.000000
    28  H    1.831470   1.774064   0.000000
    29  H    4.123095   4.088051   4.704829   0.000000
    30  H    3.491867   2.887068   4.087905   1.780270   0.000000
    31  H    2.893103   3.310772   4.095974   1.803403   1.798560
    32  H    7.306810   6.209727   5.945639   6.384394   6.303766
    33  H    8.002552   7.107272   6.422142   7.644041   7.663867
    34  H    6.495204   5.444697   4.875876   6.643748   6.347170
    35  H    7.166396   6.927427   6.154736   5.740397   6.597121
    36  H    8.316950   7.811874   7.026641   7.171750   7.759550
    37  H    7.636412   6.989402   6.576759   5.820388   6.419023
    38  Ru   4.403230   3.792430   3.385460   3.709374   3.857254
    39  H    5.423173   4.179800   4.730789   3.789713   3.358239
                   31         32         33         34         35
    31  H    0.000000
    32  H    7.463575   0.000000
    33  H    8.594582   1.806249   0.000000
    34  H    7.336636   1.781979   1.811890   0.000000
    35  H    6.969872   3.648983   3.682365   4.171938   0.000000
    36  H    8.388119   3.017218   2.458763   3.669468   1.796727
    37  H    7.224810   2.423193   3.050166   3.641136   1.783374
    38  Ru   4.526743   3.219791   4.089581   3.078001   3.204179
    39  H    4.837781   3.164828   4.801971   3.738040   4.755452
                   36         37         38         39
    36  H    0.000000
    37  H    1.796930   0.000000
    38  Ru   4.123129   3.263741   0.000000
    39  H    5.275628   3.849457   2.437967   0.000000
 Stoichiometry    C12H20N2O3PRu(2)
 Framework group  C1[X(C12H20N2O3PRu)]
 Deg. of freedom   111
 Full point group                 C1      NOp   1
 Largest Abelian subgroup         C1      NOp   1
 Largest concise Abelian subgroup C1      NOp   1
                         Standard orientation:                         
 ---------------------------------------------------------------------
 Center     Atomic      Atomic             Coordinates (Angstroms)
 Number     Number       Type             X           Y           Z
 ---------------------------------------------------------------------
      1          8           0       -0.876354   -2.494525   -0.690314
      2          8           0        0.151473   -0.432115   -2.095099
      3          6           0        2.231473   -2.454862   -0.912253
      4          1           0        2.304742   -0.116344   -1.716454
      5          7           0        1.956363   -1.294130   -0.058235
      6          6           0        2.566210   -0.086456   -0.645176
      7          6           0       -2.599229    0.930300   -1.924891
      8          6           0       -3.672833   -0.031794    0.597780
      9         15           0       -2.117007    0.413064   -0.246753
     10          1           0        3.663510   -0.088814   -0.516768
     11          6           0        2.471930   -1.520147    1.293570
     12          6           0       -0.563921   -1.163202    1.683201
     13          6           0        1.949657    1.180698   -0.127953
     14          7           0        0.635333    1.094885    0.147236
     15          6           0       -1.561127    1.968364    0.632550
     16          6           0       -0.094411    2.198687    0.403352
     17          6           0        2.614064    2.400073   -0.065700
     18          1           0        3.683918    2.448334   -0.272170
     19          1           0       -1.730095    1.764581    1.705190
     20          1           0       -2.156365    2.854612    0.365351
     21          6           0        0.511043    3.451651    0.442913
     22          6           0        1.883611    3.549162    0.227609
     23          1           0       -0.089645    4.338597    0.647352
     24          1           0        2.378961    4.520536    0.271743
     25          8           0       -0.827054   -1.389628    2.792741
     26          1           0       -3.275870    1.797251   -1.912608
     27          1           0       -3.093024    0.075388   -2.409769
     28          1           0       -1.665749    1.127208   -2.471925
     29          1           0       -3.455041   -0.275549    1.647070
     30          1           0       -4.070650   -0.934445    0.112065
     31          1           0       -4.416472    0.777212    0.542712
     32          1           0        1.728757   -3.331766   -0.485596
     33          1           0        3.319575   -2.639756   -0.988543
     34          1           0        1.803034   -2.251486   -1.900845
     35          1           0        2.267221   -0.641043    1.919636
     36          1           0        3.562998   -1.704026    1.272136
     37          1           0        1.967311   -2.389187    1.733976
     38         44           0       -0.221184   -0.799891   -0.092669
     39          1           0       -1.385089   -2.942020   -0.075474
 ---------------------------------------------------------------------
 Rotational constants (GHZ):           0.3814630           0.3544403           0.2519269
 General basis read from cards:  (5D, 7F)
 ======================================================================================================
                                       Pseudopotential Parameters
 ======================================================================================================
  Center     Atomic      Valence      Angular      Power
  Number     Number     Electrons     Momentum     of R      Exponent        Coefficient   SO-Coeffient
 ======================================================================================================
    1          8
                                   No pseudopotential on this center.
    2          8
                                   No pseudopotential on this center.
    3          6
                                   No pseudopotential on this center.
    4          1
                                   No pseudopotential on this center.
    5          7
                                   No pseudopotential on this center.
    6          6
                                   No pseudopotential on this center.
    7          6
                                   No pseudopotential on this center.
    8          6
                                   No pseudopotential on this center.
    9         15
                                   No pseudopotential on this center.
   10          1
                                   No pseudopotential on this center.
   11          6
                                   No pseudopotential on this center.
   12          6
                                   No pseudopotential on this center.
   13          6
                                   No pseudopotential on this center.
   14          7
                                   No pseudopotential on this center.
   15          6
                                   No pseudopotential on this center.
   16          6
                                   No pseudopotential on this center.
   17          6
                                   No pseudopotential on this center.
   18          1
                                   No pseudopotential on this center.
   19          1
                                   No pseudopotential on this center.
   20          1
                                   No pseudopotential on this center.
   21          6
                                   No pseudopotential on this center.
   22          6
                                   No pseudopotential on this center.
   23          1
                                   No pseudopotential on this center.
   24          1
                                   No pseudopotential on this center.
   25          8
                                   No pseudopotential on this center.
   26          1
                                   No pseudopotential on this center.
   27          1
                                   No pseudopotential on this center.
   28          1
                                   No pseudopotential on this center.
   29          1
                                   No pseudopotential on this center.
   30          1
                                   No pseudopotential on this center.
   31          1
                                   No pseudopotential on this center.
   32          1
                                   No pseudopotential on this center.
   33          1
                                   No pseudopotential on this center.
   34          1
                                   No pseudopotential on this center.
   35          1
                                   No pseudopotential on this center.
   36          1
                                   No pseudopotential on this center.
   37          1
                                   No pseudopotential on this center.
   38         44           16
                                      G and up 
                                                     2        1.0000000        0.00000000    0.00000000
                                      S - G
                                                     2       11.1052690      209.82297100    0.00000000
                                                     2        5.4147450       30.65472600    0.00000000
                                      P - G
                                                     2        9.7712710      146.33618200    0.00000000
                                                     2        5.0739910       24.12787700    0.00000000
                                      D - G
                                                     2        7.6714230       67.51589700    0.00000000
                                                     2        4.1365650        9.87010400    0.00000000
                                      F - G
                                                     2       11.3600000      -28.34061600    0.00000000
                                                     2        5.6800000       -4.94462900    0.00000000
   39          1
                                   No pseudopotential on this center.
 ======================================================================================================
 There are   413 symmetry adapted cartesian basis functions of A   symmetry.
 There are   392 symmetry adapted basis functions of A   symmetry.
   392 basis functions,   837 primitive gaussians,   413 cartesian basis functions
    81 alpha electrons       80 beta electrons
       nuclear repulsion energy      1994.9517960029 Hartrees.
 NAtoms=   39 NActive=   39 NUniq=   39 SFac= 1.00D+00 NAtFMM=   60 NAOKFM=F Big=F
 Integral buffers will be    131072 words long.
 Raffenetti 2 integral format.
 Two-electron integral symmetry is turned on.
 Nuclear repulsion after empirical dispersion term =     1994.8963981550 Hartrees.
 One-electron integrals computed using PRISM.
   1 Symmetry operations used in ECPInt.
 ECPInt:  NShTT=   17020 NPrTT=  126709 LenC2=   16491 LenP2D=   70096.
 LDataN:  DoStor=T MaxTD1= 6 Len=  172
 NBasis=   392 RedAO= T EigKep=  4.53D-04  NBF=   392
 NBsUse=   392 1.00D-06 EigRej= -1.00D+00 NBFU=   392
 Defaulting to unpruned grid for atomic number  44.
 ExpMin= 1.60D-02 ExpMax= 9.48D+04 ExpMxC= 3.24D+03 IAcc=3 IRadAn=         5 AccDes= 0.00D+00
 Harris functional with IExCor= 1009 and IRadAn=       5 diagonalized for initial guess.
 HarFok:  IExCor= 1009 AccDes= 0.00D+00 IRadAn=         5 IDoV= 1 UseB2=F ITyADJ=14
 ICtDFT=  3500011 ScaDFX=  1.000000  1.000000  1.000000  1.000000
 Defaulting to unpruned grid for atomic number  44.
 FoFCou: FMM=F IPFlag=           0 FMFlag=      100000 FMFlg1=           0
         NFxFlg=           0 DoJE=T BraDBF=F KetDBF=T FulRan=T
         wScrn=  0.000000 ICntrl=       500 IOpCl=  0 I1Cent=   200000004 NGrid=           0
         NMat0=    1 NMatS0=      1 NMatT0=    0 NMatD0=    1 NMtDS0=    0 NMtDT0=    0
 Petite list used in FoFCou.
 Initial guess <Sx>= 0.0000 <Sy>= 0.0000 <Sz>= 0.5000 <S**2>= 0.7500 S= 0.5000
 Requested convergence on RMS density matrix=1.00D-08 within 128 cycles.
 Requested convergence on MAX density matrix=1.00D-06.
 Requested convergence on             energy=1.00D-06.
 No special actions if energy rises.
 Defaulting to unpruned grid for atomic number  44.
 Defaulting to unpruned grid for atomic number  44.
 Defaulting to unpruned grid for atomic number  44.
 Defaulting to unpruned grid for atomic number  44.
 Defaulting to unpruned grid for atomic number  44.
 Defaulting to unpruned grid for atomic number  44.
 Defaulting to unpruned grid for atomic number  44.
 Defaulting to unpruned grid for atomic number  44.
 Defaulting to unpruned grid for atomic number  44.
 Defaulting to unpruned grid for atomic number  44.
 Defaulting to unpruned grid for atomic number  44.
 Defaulting to unpruned grid for atomic number  44.
 Defaulting to unpruned grid for atomic number  44.
 Defaulting to unpruned grid for atomic number  44.
 Defaulting to unpruned grid for atomic number  44.
 Defaulting to unpruned grid for atomic number  44.
 Defaulting to unpruned grid for atomic number  44.
 Defaulting to unpruned grid for atomic number  44.
 Defaulting to unpruned grid for atomic number  44.
 Defaulting to unpruned grid for atomic number  44.
 EnCoef did   100 forward-backward iterations
 EnCoef did     2 forward-backward iterations
 Restarting incremental Fock formation.
 SCF Done:  E(UPBE1PBE) =  -1239.82541421     A.U. after   39 cycles
            NFock= 39  Conv=0.69D-08     -V/T= 2.0568
 <Sx>= 0.0000 <Sy>= 0.0000 <Sz>= 0.5000 <S**2>= 0.7567 S= 0.5033
 <L.S>= 0.000000000000E+00
 Annihilation of the first spin contaminant:
 S**2 before annihilation     0.7567,   after     0.7500

 **********************************************************************

            Population analysis using the SCF density.

 **********************************************************************

 Orbital symmetries:
 Alpha Orbitals:
       Occupied  (A) (A) (A) (A) (A) (A) (A) (A) (A) (A) (A) (A)
                 (A) (A) (A) (A) (A) (A) (A) (A) (A) (A) (A) (A)
                 (A) (A) (A) (A) (A) (A) (A) (A) (A) (A) (A) (A)
                 (A) (A) (A) (A) (A) (A) (A) (A) (A) (A) (A) (A)
                 (A) (A) (A) (A) (A) (A) (A) (A) (A) (A) (A) (A)
                 (A) (A) (A) (A) (A) (A) (A) (A) (A) (A) (A) (A)
                 (A) (A) (A) (A) (A) (A) (A) (A) (A)
       Virtual   (A) (A) (A) (A) (A) (A) (A) (A) (A) (A) (A) (A)
                 (A) (A) (A) (A) (A) (A) (A) (A) (A) (A) (A) (A)
                 (A) (A) (A) (A) (A) (A) (A) (A) (A) (A) (A) (A)
                 (A) (A) (A) (A) (A) (A) (A) (A) (A) (A) (A) (A)
                 (A) (A) (A) (A) (A) (A) (A) (A) (A) (A) (A) (A)
                 (A) (A) (A) (A) (A) (A) (A) (A) (A) (A) (A) (A)
                 (A) (A) (A) (A) (A) (A) (A) (A) (A) (A) (A) (A)
                 (A) (A) (A) (A) (A) (A) (A) (A) (A) (A) (A) (A)
                 (A) (A) (A) (A) (A) (A) (A) (A) (A) (A) (A) (A)
                 (A) (A) (A) (A) (A) (A) (A) (A) (A) (A) (A) (A)
                 (A) (A) (A) (A) (A) (A) (A) (A) (A) (A) (A) (A)
                 (A) (A) (A) (A) (A) (A) (A) (A) (A) (A) (A) (A)
                 (A) (A) (A) (A) (A) (A) (A) (A) (A) (A) (A) (A)
                 (A) (A) (A) (A) (A) (A) (A) (A) (A) (A) (A) (A)
                 (A) (A) (A) (A) (A) (A) (A) (A) (A) (A) (A) (A)
                 (A) (A) (A) (A) (A) (A) (A) (A) (A) (A) (A) (A)
                 (A) (A) (A) (A) (A) (A) (A) (A) (A) (A) (A) (A)
                 (A) (A) (A) (A) (A) (A) (A) (A) (A) (A) (A) (A)
                 (A) (A) (A) (A) (A) (A) (A) (A) (A) (A) (A) (A)
                 (A) (A) (A) (A) (A) (A) (A) (A) (A) (A) (A) (A)
                 (A) (A) (A) (A) (A) (A) (A) (A) (A) (A) (A) (A)
                 (A) (A) (A) (A) (A) (A) (A) (A) (A) (A) (A) (A)
                 (A) (A) (A) (A) (A) (A) (A) (A) (A) (A) (A) (A)
                 (A) (A) (A) (A) (A) (A) (A) (A) (A) (A) (A) (A)
                 (A) (A) (A) (A) (A) (A) (A) (A) (A) (A) (A) (A)
                 (A) (A) (A) (A) (A) (A) (A) (A) (A) (A) (A)
 Beta  Orbitals:
       Occupied  (A) (A) (A) (A) (A) (A) (A) (A) (A) (A) (A) (A)
                 (A) (A) (A) (A) (A) (A) (A) (A) (A) (A) (A) (A)
                 (A) (A) (A) (A) (A) (A) (A) (A) (A) (A) (A) (A)
                 (A) (A) (A) (A) (A) (A) (A) (A) (A) (A) (A) (A)
                 (A) (A) (A) (A) (A) (A) (A) (A) (A) (A) (A) (A)
                 (A) (A) (A) (A) (A) (A) (A) (A) (A) (A) (A) (A)
                 (A) (A) (A) (A) (A) (A) (A) (A)
       Virtual   (A) (A) (A) (A) (A) (A) (A) (A) (A) (A) (A) (A)
                 (A) (A) (A) (A) (A) (A) (A) (A) (A) (A) (A) (A)
                 (A) (A) (A) (A) (A) (A) (A) (A) (A) (A) (A) (A)
                 (A) (A) (A) (A) (A) (A) (A) (A) (A) (A) (A) (A)
                 (A) (A) (A) (A) (A) (A) (A) (A) (A) (A) (A) (A)
                 (A) (A) (A) (A) (A) (A) (A) (A) (A) (A) (A) (A)
                 (A) (A) (A) (A) (A) (A) (A) (A) (A) (A) (A) (A)
                 (A) (A) (A) (A) (A) (A) (A) (A) (A) (A) (A) (A)
                 (A) (A) (A) (A) (A) (A) (A) (A) (A) (A) (A) (A)
                 (A) (A) (A) (A) (A) (A) (A) (A) (A) (A) (A) (A)
                 (A) (A) (A) (A) (A) (A) (A) (A) (A) (A) (A) (A)
                 (A) (A) (A) (A) (A) (A) (A) (A) (A) (A) (A) (A)
                 (A) (A) (A) (A) (A) (A) (A) (A) (A) (A) (A) (A)
                 (A) (A) (A) (A) (A) (A) (A) (A) (A) (A) (A) (A)
                 (A) (A) (A) (A) (A) (A) (A) (A) (A) (A) (A) (A)
                 (A) (A) (A) (A) (A) (A) (A) (A) (A) (A) (A) (A)
                 (A) (A) (A) (A) (A) (A) (A) (A) (A) (A) (A) (A)
                 (A) (A) (A) (A) (A) (A) (A) (A) (A) (A) (A) (A)
                 (A) (A) (A) (A) (A) (A) (A) (A) (A) (A) (A) (A)
                 (A) (A) (A) (A) (A) (A) (A) (A) (A) (A) (A) (A)
                 (A) (A) (A) (A) (A) (A) (A) (A) (A) (A) (A) (A)
                 (A) (A) (A) (A) (A) (A) (A) (A) (A) (A) (A) (A)
                 (A) (A) (A) (A) (A) (A) (A) (A) (A) (A) (A) (A)
                 (A) (A) (A) (A) (A) (A) (A) (A) (A) (A) (A) (A)
                 (A) (A) (A) (A) (A) (A) (A) (A) (A) (A) (A) (A)
                 (A) (A) (A) (A) (A) (A) (A) (A) (A) (A) (A) (A)
 The electronic state is 2-A.
 Alpha  occ. eigenvalues --  -77.26175 -19.25324 -19.16041 -19.11568 -14.44802
 Alpha  occ. eigenvalues --  -14.43898 -10.30696 -10.30629 -10.30163 -10.27578
 Alpha  occ. eigenvalues --  -10.27510 -10.26633 -10.26559 -10.26410 -10.26193
 Alpha  occ. eigenvalues --  -10.24627 -10.24097 -10.23139  -6.64225  -4.77879
 Alpha  occ. eigenvalues --   -4.77808  -4.77504  -3.03107  -1.86974  -1.85991
 Alpha  occ. eigenvalues --   -1.85616  -1.11854  -1.01703  -0.97529  -0.91416
 Alpha  occ. eigenvalues --   -0.86889  -0.85431  -0.85092  -0.79731  -0.75763
 Alpha  occ. eigenvalues --   -0.73532  -0.72988  -0.71987  -0.66764  -0.65488
 Alpha  occ. eigenvalues --   -0.61910  -0.57528  -0.55592  -0.54901  -0.53019
 Alpha  occ. eigenvalues --   -0.51156  -0.49914  -0.49412  -0.47836  -0.47220
 Alpha  occ. eigenvalues --   -0.46188  -0.45326  -0.44713  -0.44317  -0.44008
 Alpha  occ. eigenvalues --   -0.43481  -0.43181  -0.43027  -0.42131  -0.41629
 Alpha  occ. eigenvalues --   -0.40780  -0.40496  -0.40227  -0.38902  -0.38161
 Alpha  occ. eigenvalues --   -0.37130  -0.36565  -0.35814  -0.35630  -0.33609
 Alpha  occ. eigenvalues --   -0.33032  -0.30145  -0.28738  -0.28196  -0.27955
 Alpha  occ. eigenvalues --   -0.27463  -0.26535  -0.25580  -0.20290  -0.20008
 Alpha  occ. eigenvalues --   -0.16025
 Alpha virt. eigenvalues --   -0.04893  -0.03196   0.00345   0.01683   0.02326
 Alpha virt. eigenvalues --    0.02604   0.03697   0.04485   0.05350   0.06404
 Alpha virt. eigenvalues --    0.07668   0.08085   0.08751   0.09402   0.09624
 Alpha virt. eigenvalues --    0.10686   0.10854   0.11559   0.12424   0.13035
 Alpha virt. eigenvalues --    0.13220   0.13831   0.14132   0.14489   0.15104
 Alpha virt. eigenvalues --    0.15415   0.15508   0.16203   0.16952   0.17448
 Alpha virt. eigenvalues --    0.17669   0.18849   0.19645   0.20492   0.21358
 Alpha virt. eigenvalues --    0.21491   0.21627   0.22579   0.23168   0.23521
 Alpha virt. eigenvalues --    0.24327   0.24757   0.25815   0.27918   0.28471
 Alpha virt. eigenvalues --    0.29308   0.30185   0.30322   0.32207   0.33245
 Alpha virt. eigenvalues --    0.34471   0.36516   0.37705   0.38389   0.40261
 Alpha virt. eigenvalues --    0.41364   0.42046   0.43607   0.44544   0.45686
 Alpha virt. eigenvalues --    0.46453   0.46581   0.48325   0.48567   0.49600
 Alpha virt. eigenvalues --    0.50334   0.50372   0.51821   0.52504   0.53772
 Alpha virt. eigenvalues --    0.54961   0.55844   0.56154   0.57513   0.57686
 Alpha virt. eigenvalues --    0.58718   0.59546   0.59628   0.60748   0.61305
 Alpha virt. eigenvalues --    0.61369   0.61995   0.62741   0.63517   0.64249
 Alpha virt. eigenvalues --    0.64462   0.64779   0.65092   0.65983   0.66264
 Alpha virt. eigenvalues --    0.66599   0.67416   0.67742   0.68442   0.69000
 Alpha virt. eigenvalues --    0.69243   0.69524   0.70227   0.71178   0.71391
 Alpha virt. eigenvalues --    0.72132   0.73187   0.73633   0.74109   0.74554
 Alpha virt. eigenvalues --    0.75896   0.77346   0.78610   0.79248   0.80223
 Alpha virt. eigenvalues --    0.80805   0.81070   0.82005   0.83450   0.84081
 Alpha virt. eigenvalues --    0.84971   0.86389   0.87050   0.87814   0.89066
 Alpha virt. eigenvalues --    0.89097   0.89624   0.90341   0.92361   0.93269
 Alpha virt. eigenvalues --    0.93523   0.94242   0.95960   0.97182   0.97729
 Alpha virt. eigenvalues --    0.99068   1.00007   1.01704   1.02716   1.03627
 Alpha virt. eigenvalues --    1.04563   1.05586   1.06013   1.06922   1.07847
 Alpha virt. eigenvalues --    1.09359   1.10720   1.10899   1.11735   1.14066
 Alpha virt. eigenvalues --    1.15976   1.16981   1.17993   1.19127   1.20467
 Alpha virt. eigenvalues --    1.22662   1.23846   1.24871   1.25422   1.26904
 Alpha virt. eigenvalues --    1.28526   1.29633   1.29824   1.31122   1.31901
 Alpha virt. eigenvalues --    1.33562   1.34141   1.35037   1.36411   1.37693
 Alpha virt. eigenvalues --    1.38831   1.40135   1.40840   1.41428   1.41838
 Alpha virt. eigenvalues --    1.42304   1.43614   1.45055   1.45657   1.46006
 Alpha virt. eigenvalues --    1.47802   1.48631   1.50199   1.50658   1.52169
 Alpha virt. eigenvalues --    1.52809   1.53709   1.54246   1.54330   1.56042
 Alpha virt. eigenvalues --    1.56143   1.58359   1.60263   1.61281   1.61734
 Alpha virt. eigenvalues --    1.62592   1.63686   1.63984   1.64550   1.66041
 Alpha virt. eigenvalues --    1.66330   1.66972   1.67054   1.67747   1.68482
 Alpha virt. eigenvalues --    1.69047   1.69837   1.70653   1.71609   1.72049
 Alpha virt. eigenvalues --    1.73082   1.74540   1.75027   1.75899   1.76531
 Alpha virt. eigenvalues --    1.77168   1.77571   1.78317   1.80148   1.80563
 Alpha virt. eigenvalues --    1.81320   1.82680   1.83285   1.84009   1.84756
 Alpha virt. eigenvalues --    1.85238   1.86683   1.87948   1.90210   1.90371
 Alpha virt. eigenvalues --    1.91271   1.92878   1.93760   1.95278   1.95686
 Alpha virt. eigenvalues --    1.97777   1.98015   1.98618   1.99941   2.01133
 Alpha virt. eigenvalues --    2.01449   2.03583   2.04814   2.05544   2.08165
 Alpha virt. eigenvalues --    2.09386   2.09682   2.11212   2.12759   2.14105
 Alpha virt. eigenvalues --    2.15339   2.16514   2.16752   2.17213   2.19298
 Alpha virt. eigenvalues --    2.20268   2.20935   2.22052   2.25738   2.29134
 Alpha virt. eigenvalues --    2.31224   2.33412   2.37080   2.39352   2.39672
 Alpha virt. eigenvalues --    2.40224   2.42089   2.43687   2.44289   2.44746
 Alpha virt. eigenvalues --    2.45582   2.46673   2.48129   2.48766   2.49081
 Alpha virt. eigenvalues --    2.49405   2.50479   2.51331   2.51993   2.53248
 Alpha virt. eigenvalues --    2.54471   2.54974   2.56470   2.57263   2.60143
 Alpha virt. eigenvalues --    2.63778   2.64089   2.65097   2.66736   2.67698
 Alpha virt. eigenvalues --    2.70512   2.71744   2.73250   2.73524   2.74843
 Alpha virt. eigenvalues --    2.77939   2.78230   2.81652   2.83010   2.85310
 Alpha virt. eigenvalues --    2.87859   2.92079   2.97404   2.98478   3.06628
 Alpha virt. eigenvalues --    3.10721   3.12428   3.14310   3.19603   3.48377
 Alpha virt. eigenvalues --    3.57699   3.91067  34.82256  34.94528  35.02260
 Alpha virt. eigenvalues --   45.98492
  Beta  occ. eigenvalues --  -77.26175 -19.25279 -19.13522 -19.11563 -14.44768
  Beta  occ. eigenvalues --  -14.43900 -10.30707 -10.30622 -10.30173 -10.27563
  Beta  occ. eigenvalues --  -10.27520 -10.26628 -10.26554 -10.26410 -10.26193
  Beta  occ. eigenvalues --  -10.24627 -10.24097 -10.23143  -6.64225  -4.77880
  Beta  occ. eigenvalues --   -4.77808  -4.77504  -3.03046  -1.86920  -1.85943
  Beta  occ. eigenvalues --   -1.85509  -1.11784  -1.01674  -0.97520  -0.91392
  Beta  occ. eigenvalues --   -0.85446  -0.85128  -0.79966  -0.78736  -0.75741
  Beta  occ. eigenvalues --   -0.73487  -0.72982  -0.71971  -0.66764  -0.65481
  Beta  occ. eigenvalues --   -0.61896  -0.57524  -0.55492  -0.54865  -0.52997
  Beta  occ. eigenvalues --   -0.51112  -0.49860  -0.49399  -0.47831  -0.47219
  Beta  occ. eigenvalues --   -0.46137  -0.45280  -0.44653  -0.44273  -0.43905
  Beta  occ. eigenvalues --   -0.43407  -0.43112  -0.42874  -0.42113  -0.41541
  Beta  occ. eigenvalues --   -0.40772  -0.40427  -0.40213  -0.38815  -0.38119
  Beta  occ. eigenvalues --   -0.37120  -0.36464  -0.35772  -0.35252  -0.33420
  Beta  occ. eigenvalues --   -0.32974  -0.28706  -0.28005  -0.27637  -0.27502
  Beta  occ. eigenvalues --   -0.25885  -0.23993  -0.20752  -0.18372  -0.15981
  Beta virt. eigenvalues --   -0.05137  -0.04067  -0.03198   0.00384   0.01852
  Beta virt. eigenvalues --    0.02401   0.03148   0.03758   0.04728   0.05522
  Beta virt. eigenvalues --    0.06484   0.07695   0.08093   0.08906   0.09440
  Beta virt. eigenvalues --    0.09695   0.10687   0.10906   0.11601   0.12434
  Beta virt. eigenvalues --    0.13231   0.13365   0.13924   0.14197   0.14507
  Beta virt. eigenvalues --    0.15163   0.15488   0.15709   0.16247   0.17031
  Beta virt. eigenvalues --    0.17466   0.17688   0.18923   0.19763   0.20523
  Beta virt. eigenvalues --    0.21445   0.21619   0.21697   0.22626   0.23186
  Beta virt. eigenvalues --    0.23768   0.24379   0.24867   0.25978   0.27984
  Beta virt. eigenvalues --    0.28692   0.29341   0.30224   0.30365   0.32299
  Beta virt. eigenvalues --    0.33307   0.34676   0.36546   0.38057   0.38468
  Beta virt. eigenvalues --    0.40320   0.41410   0.42068   0.43633   0.44622
  Beta virt. eigenvalues --    0.45792   0.46591   0.46638   0.48371   0.48655
  Beta virt. eigenvalues --    0.49597   0.50351   0.50444   0.51841   0.52588
  Beta virt. eigenvalues --    0.53810   0.55024   0.55879   0.56189   0.57536
  Beta virt. eigenvalues --    0.57780   0.58750   0.59630   0.59653   0.60863
  Beta virt. eigenvalues --    0.61319   0.61429   0.61999   0.62889   0.63554
  Beta virt. eigenvalues --    0.64285   0.64519   0.64824   0.65106   0.66024
  Beta virt. eigenvalues --    0.66409   0.66733   0.67422   0.67756   0.68570
  Beta virt. eigenvalues --    0.69013   0.69279   0.69562   0.70244   0.71231
  Beta virt. eigenvalues --    0.71432   0.72167   0.73213   0.73660   0.74191
  Beta virt. eigenvalues --    0.74635   0.75958   0.77431   0.78656   0.79279
  Beta virt. eigenvalues --    0.80247   0.80888   0.81105   0.82025   0.83517
  Beta virt. eigenvalues --    0.84190   0.85023   0.86405   0.87195   0.87905
  Beta virt. eigenvalues --    0.89110   0.89202   0.89684   0.90357   0.92394
  Beta virt. eigenvalues --    0.93406   0.93547   0.94281   0.96018   0.97196
  Beta virt. eigenvalues --    0.97863   0.99106   1.00040   1.01766   1.02793
  Beta virt. eigenvalues --    1.03648   1.04591   1.05622   1.06338   1.07011
  Beta virt. eigenvalues --    1.08028   1.09451   1.10960   1.11192   1.12224
  Beta virt. eigenvalues --    1.14262   1.16379   1.17085   1.18166   1.19474
  Beta virt. eigenvalues --    1.20654   1.23592   1.23963   1.24924   1.25966
  Beta virt. eigenvalues --    1.27461   1.28710   1.29723   1.30945   1.31765
  Beta virt. eigenvalues --    1.32141   1.34020   1.34397   1.35630   1.36596
  Beta virt. eigenvalues --    1.37880   1.38902   1.40359   1.41038   1.41863
  Beta virt. eigenvalues --    1.41931   1.42602   1.43665   1.45141   1.45742
  Beta virt. eigenvalues --    1.46112   1.48003   1.48806   1.50290   1.50807
  Beta virt. eigenvalues --    1.52388   1.53099   1.53815   1.54365   1.54602
  Beta virt. eigenvalues --    1.56060   1.56264   1.58392   1.60298   1.61295
  Beta virt. eigenvalues --    1.61785   1.62606   1.63689   1.64016   1.64566
  Beta virt. eigenvalues --    1.66053   1.66368   1.66980   1.67058   1.67756
  Beta virt. eigenvalues --    1.68571   1.69079   1.69862   1.70717   1.71612
  Beta virt. eigenvalues --    1.72054   1.73144   1.74561   1.75065   1.75923
  Beta virt. eigenvalues --    1.76552   1.77203   1.77575   1.78330   1.80180
  Beta virt. eigenvalues --    1.80627   1.81336   1.82806   1.83309   1.84040
  Beta virt. eigenvalues --    1.84805   1.85306   1.86728   1.88052   1.90247
  Beta virt. eigenvalues --    1.90393   1.91287   1.92887   1.93792   1.95338
  Beta virt. eigenvalues --    1.95719   1.97798   1.98035   1.98654   1.99976
  Beta virt. eigenvalues --    2.01162   2.01525   2.03627   2.04899   2.05588
  Beta virt. eigenvalues --    2.08344   2.09447   2.09805   2.11293   2.12934
  Beta virt. eigenvalues --    2.14295   2.15383   2.16565   2.16793   2.17221
  Beta virt. eigenvalues --    2.19314   2.20337   2.21100   2.22106   2.26014
  Beta virt. eigenvalues --    2.29690   2.31556   2.33771   2.37220   2.39413
  Beta virt. eigenvalues --    2.39741   2.40268   2.42280   2.43742   2.44331
  Beta virt. eigenvalues --    2.44786   2.45626   2.46697   2.48236   2.48794
  Beta virt. eigenvalues --    2.49251   2.49430   2.50526   2.51401   2.52021
  Beta virt. eigenvalues --    2.53275   2.54579   2.54989   2.56603   2.57333
  Beta virt. eigenvalues --    2.60566   2.63969   2.64520   2.65304   2.67117
  Beta virt. eigenvalues --    2.69347   2.71045   2.72321   2.74329   2.74680
  Beta virt. eigenvalues --    2.77399   2.79825   2.82098   2.83439   2.86262
  Beta virt. eigenvalues --    2.87254   2.90155   2.92664   2.98475   2.99680
  Beta virt. eigenvalues --    3.07448   3.10981   3.12661   3.14814   3.20099
  Beta virt. eigenvalues --    3.48389   3.57767   3.91082  34.82291  34.94546
  Beta virt. eigenvalues --   35.02268  45.98510
          Condensed to atoms (all electrons):
               1          2          3          4          5          6
     1  O    7.751151  -0.005531  -0.001284   0.000139  -0.003324  -0.000109
     2  O   -0.005531   8.060061  -0.012520   0.013966  -0.009234  -0.005649
     3  C   -0.001284  -0.012520   4.585334  -0.007782   0.344803  -0.043094
     4  H    0.000139   0.013966  -0.007782   0.543742  -0.018736   0.370231
     5  N   -0.003324  -0.009234   0.344803  -0.018736   6.574787   0.308601
     6  C   -0.000109  -0.005649  -0.043094   0.370231   0.308601   4.733626
     7  C   -0.000615  -0.004739  -0.000000  -0.000013   0.000018   0.000003
     8  C   -0.000268   0.000097  -0.000000  -0.000001   0.000011   0.000000
     9  P   -0.019082  -0.020066   0.000012   0.000610  -0.006936   0.000459
    10  H    0.000003   0.000657  -0.004347  -0.031203  -0.026495   0.369820
    11  C   -0.000273  -0.000010  -0.047049   0.006854   0.348740  -0.056735
    12  C   -0.012764  -0.006205  -0.000296   0.000074   0.001164   0.001302
    13  C    0.000087  -0.007364   0.008191  -0.006831  -0.016690   0.418876
    14  N   -0.001251  -0.008440   0.000486  -0.005131  -0.013114  -0.055163
    15  C    0.000008  -0.000445   0.000002  -0.000005   0.000058  -0.000711
    16  C   -0.000016  -0.002593   0.000041  -0.000108  -0.000635   0.006842
    17  C   -0.000001  -0.000142  -0.000226  -0.002144   0.004157  -0.073107
    18  H    0.000000  -0.000013  -0.000027  -0.000401   0.000196  -0.010285
    19  H    0.000001  -0.000022  -0.000001   0.000004   0.000005   0.000013
    20  H    0.000001  -0.000016  -0.000000   0.000002  -0.000002   0.000016
    21  C   -0.000000  -0.000009  -0.000002   0.000191   0.000002   0.000887
    22  C    0.000000  -0.000005   0.000007  -0.000086  -0.000125   0.005216
    23  H    0.000000   0.000000  -0.000000  -0.000001   0.000000   0.000055
    24  H   -0.000000  -0.000000  -0.000000  -0.000001   0.000002  -0.000282
    25  O    0.000207   0.000002   0.000029   0.000000  -0.000095   0.000006
    26  H   -0.000023   0.000538   0.000000  -0.000000  -0.000001  -0.000002
    27  H   -0.000580  -0.001506  -0.000001   0.000005  -0.000002  -0.000000
    28  H    0.000105   0.012348   0.000012  -0.000038   0.000033  -0.000016
    29  H   -0.000381   0.000006  -0.000000  -0.000000   0.000002  -0.000001
    30  H   -0.000769   0.000006   0.000000  -0.000000   0.000000  -0.000000
    31  H   -0.000029   0.000001   0.000000   0.000000  -0.000000  -0.000000
    32  H   -0.000733  -0.000223   0.398088   0.000780  -0.018006   0.005067
    33  H    0.000174  -0.000113   0.381840  -0.003805  -0.027788  -0.005822
    34  H   -0.004073   0.010747   0.396963   0.003562  -0.017350  -0.002298
    35  H    0.000102  -0.000013   0.007298   0.000387  -0.023598  -0.002253
    36  H   -0.000012  -0.000013  -0.005852  -0.000341  -0.028208  -0.007130
    37  H   -0.001315   0.000024  -0.001217  -0.000308  -0.018390   0.008707
    38  Ru   0.338933   0.338551  -0.034896   0.010038   0.040814  -0.078524
    39  H    0.321684   0.000593  -0.000204  -0.000010   0.000361   0.000014
               7          8          9         10         11         12
     1  O   -0.000615  -0.000268  -0.019082   0.000003  -0.000273  -0.012764
     2  O   -0.004739   0.000097  -0.020066   0.000657  -0.000010  -0.006205
     3  C   -0.000000  -0.000000   0.000012  -0.004347  -0.047049  -0.000296
     4  H   -0.000013  -0.000001   0.000610  -0.031203   0.006854   0.000074
     5  N    0.000018   0.000011  -0.006936  -0.026495   0.348740   0.001164
     6  C    0.000003   0.000000   0.000459   0.369820  -0.056735   0.001302
     7  C    4.723852  -0.037161   0.412501   0.000001   0.000000   0.000900
     8  C   -0.037161   4.737460   0.391476   0.000000  -0.000001  -0.005492
     9  P    0.412501   0.391476  14.081004  -0.000074   0.000171  -0.010826
    10  H    0.000001   0.000000  -0.000074   0.662681  -0.007644   0.000006
    11  C    0.000000  -0.000001   0.000171  -0.007644   4.588120  -0.005966
    12  C    0.000900  -0.005492  -0.010826   0.000006  -0.005966   5.267637
    13  C   -0.000183   0.000002   0.002591  -0.023142  -0.002849  -0.001604
    14  N    0.000048   0.000248  -0.009432   0.004536  -0.000309   0.003596
    15  C   -0.031523  -0.029113   0.354788   0.000017  -0.000010  -0.001634
    16  C    0.001160   0.001647  -0.033026   0.000050  -0.000167  -0.003167
    17  C   -0.000010  -0.000000  -0.000096  -0.005951  -0.000357  -0.000029
    18  H   -0.000000  -0.000000  -0.000004   0.002389  -0.000031  -0.000003
    19  H    0.003322  -0.003117  -0.018365  -0.000000  -0.000004   0.001806
    20  H   -0.003927  -0.001276  -0.014734  -0.000001   0.000000   0.000178
    21  C    0.000011  -0.000074   0.005916  -0.000145   0.000002  -0.000033
    22  C    0.000003   0.000002  -0.000327   0.000690  -0.000007   0.000027
    23  H   -0.000018  -0.000007   0.000172  -0.000002  -0.000000  -0.000009
    24  H   -0.000000  -0.000000   0.000008   0.000009  -0.000000  -0.000000
    25  O   -0.000005  -0.000587  -0.004030   0.000000  -0.000599   0.616415
    26  H    0.366079  -0.004133  -0.024575  -0.000000   0.000000  -0.000021
    27  H    0.391541  -0.001402  -0.013147   0.000000  -0.000000  -0.000045
    28  H    0.387419   0.002826  -0.018757  -0.000002   0.000000   0.000072
    29  H    0.003328   0.385011  -0.009347  -0.000000   0.000001   0.005023
    30  H   -0.000145   0.390793  -0.017679   0.000000  -0.000000  -0.000005
    31  H   -0.003613   0.371906  -0.019193  -0.000000   0.000000   0.000317
    32  H   -0.000000  -0.000001   0.000170  -0.000700  -0.001955   0.000795
    33  H    0.000000   0.000000  -0.000030   0.006589  -0.006869  -0.000026
    34  H   -0.000003  -0.000001   0.000402  -0.001107   0.005749  -0.000024
    35  H    0.000000  -0.000002   0.000355  -0.003227   0.393473  -0.002582
    36  H    0.000000   0.000000  -0.000032   0.009525   0.383395   0.001075
    37  H   -0.000000  -0.000001   0.000090   0.000023   0.397244   0.005736
    38  Ru  -0.034315  -0.007979  -0.067249   0.011563  -0.011693   0.163994
    39  H    0.000066  -0.000175  -0.003092   0.000000  -0.000016  -0.014526
              13         14         15         16         17         18
     1  O    0.000087  -0.001251   0.000008  -0.000016  -0.000001   0.000000
     2  O   -0.007364  -0.008440  -0.000445  -0.002593  -0.000142  -0.000013
     3  C    0.008191   0.000486   0.000002   0.000041  -0.000226  -0.000027
     4  H   -0.006831  -0.005131  -0.000005  -0.000108  -0.002144  -0.000401
     5  N   -0.016690  -0.013114   0.000058  -0.000635   0.004157   0.000196
     6  C    0.418876  -0.055163  -0.000711   0.006842  -0.073107  -0.010285
     7  C   -0.000183   0.000048  -0.031523   0.001160  -0.000010  -0.000000
     8  C    0.000002   0.000248  -0.029113   0.001647  -0.000000  -0.000000
     9  P    0.002591  -0.009432   0.354788  -0.033026  -0.000096  -0.000004
    10  H   -0.023142   0.004536   0.000017   0.000050  -0.005951   0.002389
    11  C   -0.002849  -0.000309  -0.000010  -0.000167  -0.000357  -0.000031
    12  C   -0.001604   0.003596  -0.001634  -0.003167  -0.000029  -0.000003
    13  C    4.868737   0.446191   0.008042  -0.061112   0.502581  -0.040012
    14  N    0.446191   6.503615  -0.065257   0.475782  -0.026610   0.005135
    15  C    0.008042  -0.065257   4.891871   0.423570   0.000861   0.000062
    16  C   -0.061112   0.475782   0.423570   4.812552  -0.052505   0.000465
    17  C    0.502581  -0.026610   0.000861  -0.052505   4.836563   0.406528
    18  H   -0.040012   0.005135   0.000062   0.000465   0.406528   0.672282
    19  H   -0.000352  -0.002452   0.359781  -0.005195   0.000054  -0.000000
[...]
 .00012036,-0.00133062,0.00515747,0.00558710,-0.00055195,0.00058337,0.0
 0068256,0.00000066,0.00000795,0.00001503,-0.00001748,0.00003056,-0.000
 01090,-0.00025851,0.00005966,-0.00006658,0.00008707,-0.00005011,0.0000
 6239,0.04587036,-0.22671399,-0.12682396,-0.00001215,0.00040635,-0.0017
 2720,0.00010998,0.00012911,-0.00044966,0.00045442,0.00027050,0.0002283
 7,-0.00001067,-0.00000695,-0.00000777,0.00003530,0.00000225,-0.0000122
 8,-0.00008905,-0.00009303,0.00010099,-0.00000173,0.00000449,-0.0000270
 7,-0.00001300,0.00000966,0.00000765,-0.00000468,-0.00000827,0.00000117
 ,0.00001367,0.00001530,0.00000224,-0.00003072,-0.00001524,0.00005779,-
 0.00000300,0.00000244,-0.00000645,-0.00000839,0.00001480,-0.00000831,-
 0.00000620,-0.00018748,0.00120976,0.00000955,0.00000357,0.00000457,0.0
 0001528,0.00000199,-0.00000084,-0.00001969,-0.00001015,-0.00002293,-0.
 00000685,-0.00000250,0.00000376,0.00000393,-0.00000032,0.00000367,-0.0
 0000800,-0.00000370,0.00000848,0.00033149,0.00039662,0.00009645,-0.000
 04440,-0.00002758,0.00017272,0.00041088,0.00029968,0.00015718,-0.05081
 040,0.23764962,-0.00006643,0.00020689,0.00016175,-0.00010811,0.0002578
 9,-0.00011209,-0.00294513,0.00362130,-0.00535879,-0.00013731,-0.000210
 89,0.00016334,0.00417589,-0.02717336,-0.02297497,0.00026443,-0.0018006
 6,0.00123154,-0.00000846,0.00005629,0.00002872,-0.00002279,0.00008437,
 0.00001244,-0.00037636,-0.00014426,-0.00013373,0.00021346,0.00017753,-
 0.00021080,0.03009370,-0.11758792,-0.13043707,-0.00001817,0.00008986,0
 .00045299,0.00028143,0.00070091,-0.00035020,-0.00040627,-0.00025753,-0
 .00001496,0.00004224,0.00002662,-0.00003141,-0.00029879,0.00013974,0.0
 0010545,0.00004997,0.00018015,0.00010008,0.00000362,0.00000002,-0.0000
 0296,0.00002143,-0.00000156,0.00000366,0.00002262,0.00001746,0.0000140
 7,0.00006915,-0.00004072,-0.00005705,0.00002870,0.00013791,-0.00000371
 ,0.00000691,-0.00001474,0.00000132,0.00000014,-0.00001260,-0.00000082,
 -0.00009656,-0.00005968,-0.00018212,-0.00000717,0.00001280,-0.00002148
 ,0.00002244,-0.00000782,0.00001665,-0.00001537,0.00000384,-0.00001879,
 -0.00000338,-0.00000315,0.00000217,0.00002539,0.00000209,-0.00001189,-
 0.00002642,-0.00001028,0.00001595,0.00000861,0.00002123,0.00028620,0.0
 0015664,0.00012473,0.00010176,0.00063045,-0.00180334,-0.00102523,-0.03
 054516,0.13411049,0.15009971,0.00017262,-0.00025722,-0.00001624,0.0002
 2898,0.00000508,-0.00014389,0.00115804,0.00113222,0.00189974,0.0003076
 6,-0.00004220,-0.00010013,-0.01717295,0.00312457,-0.00766249,0.0008844
 7,-0.00167038,0.00126672,-0.00012709,0.00014668,0.00001435,-0.00026682
 ,0.00034575,-0.00005335,-0.00004331,-0.00059714,0.00035659,0.00043663,
 0.00131622,-0.00081357,-0.29168931,0.03435273,0.01726098,0.00040033,0.
 00003872,-0.00080305,0.00007273,0.00021214,0.00011039,-0.00002465,-0.0
 0057776,0.00007154,-0.00007539,0.00013955,-0.00004826,-0.00007406,0.00
 004725,0.00000712,-0.00008692,-0.00008727,0.00003254,0.00003018,0.0000
 4708,-0.00003805,0.00000548,-0.00003648,-0.00001662,0.00002109,0.00008
 570,0.00003168,0.00005862,-0.00000240,-0.00001289,0.00000732,0.0001412
 3,0.00004117,-0.00000166,0.00000645,-0.00000289,-0.00000079,0.00001425
 ,-0.00000152,-0.00005937,-0.00005341,0.00037908,-0.00002882,0.00003036
 ,-0.00007221,-0.00000278,-0.00000569,0.00001532,0.00002290,-0.00001715
 ,0.00000960,0.00003979,0.00000263,-0.00001221,0.00002441,0.00000100,-0
 .00001606,-0.00014497,-0.00003442,0.00006575,-0.00026338,-0.00007112,0
 .00006663,0.00038114,-0.00096712,-0.00107792,0.00035318,-0.00004505,-0
 .00017657,-0.00462339,-0.00095196,0.00031204,0.32005028,0.00001803,0.0
 0015717,-0.00004565,0.00005915,-0.00013600,-0.00005197,-0.00177285,0.0
 0046887,0.00000273,-0.00023189,0.00008763,-0.00003639,0.00612201,-0.00
 170146,0.00194196,0.00271446,0.00117098,-0.00075451,0.00001662,-0.0000
 2414,-0.00000628,0.00003179,-0.00004154,0.00000359,0.00011393,-0.00001
 917,-0.00005497,-0.00068878,0.00001411,-0.00001937,0.03427478,-0.05441
 433,-0.00214777,-0.00009844,-0.00006943,0.00033402,0.00008965,-0.00023
 014,-0.00034723,-0.00008261,0.00020410,0.00005931,0.00002398,-0.000021
 43,0.00000264,-0.00006688,0.00006785,0.00002028,0.00003366,0.00010029,
 0.00001125,-0.00002897,-0.00005641,0.00003958,-0.00001136,0.00000235,0
 .00000240,-0.00000760,-0.00001166,-0.00000905,-0.00005181,-0.00002791,
 0.00000492,0.00003605,-0.00004898,-0.00002808,-0.00000597,-0.00000264,
 -0.00000109,0.00000162,-0.00000219,0.00000185,0.00003370,0.00003458,-0
 .00024220,0.00000313,-0.00000376,0.00000986,-0.00000454,-0.00000045,0.
 00000009,0.00000507,0.00000398,0.00000479,-0.00000377,-0.00000237,0.00
 000023,-0.00000240,-0.00000045,0.00000292,0.00001629,0.00000719,-0.000
 00826,-0.00016169,-0.00001592,0.00015837,0.00020073,0.00036487,0.00019
 232,0.00006241,-0.00011049,0.00002890,0.02379426,-0.00225873,-0.000532
 63,-0.04025439,0.05079756,0.00013019,-0.00032896,0.00000038,-0.0006161
 7,0.00017079,-0.00012434,-0.00284709,0.00283394,0.00289469,0.00016275,
 -0.00023923,0.00006499,-0.03728361,0.00669665,-0.00999807,-0.00323033,
 -0.00285718,0.00165905,-0.00002240,0.00007461,0.00002517,-0.00018074,0
 .00025338,-0.00003867,-0.00076819,-0.00005774,0.00024971,0.00126087,-0
 .00010324,0.00047481,0.02091413,-0.00278615,-0.04924119,0.00017325,0.0
 0033862,-0.00160160,0.00033190,0.00032171,-0.00014891,0.00006912,-0.00
 016457,-0.00009740,-0.00003309,0.00004071,-0.00005303,-0.00012334,0.00
 006365,0.00004417,-0.00000200,0.00000481,0.00003044,0.00000112,0.00000
 439,0.00000925,-0.00000949,-0.00000700,-0.00000327,0.00002728,0.000035
 69,0.00001796,0.00004979,-0.00000498,-0.00000656,-0.00000534,0.0000562
 0,0.00001613,-0.00000155,-0.00000293,-0.00000527,0.00000005,0.00000016
 ,-0.00000153,-0.00021319,-0.00023258,0.00124984,-0.00000217,0.00000847
 ,-0.00003118,-0.00000711,-0.00000599,0.00001541,0.00001422,-0.00000400
 ,-0.00000777,0.00001141,0.00000436,-0.00000092,0.00001870,0.00000267,-
 0.00001217,-0.00010239,-0.00003533,0.00005249,0.00016162,-0.00020856,-
 0.00017936,0.00140545,0.00000825,0.00030442,0.00024401,0.00011793,0.00
 003578,0.01659220,-0.00060855,-0.00012743,-0.00985049,0.00023186,0.055
 79443,0.00010618,-0.00014406,0.00018728,-0.00023557,0.00013200,0.00031
 753,0.00001308,0.00031565,-0.00005322,0.00055434,0.00062702,-0.0005417
 8,0.00463101,0.01314083,-0.00770876,-0.00042818,0.00000214,-0.00239320
 ,0.00006094,-0.00001000,0.00000043,0.00001144,-0.00001472,-0.00001232,
 -0.00028351,0.00008062,0.00009624,0.00046549,0.00023563,-0.00022017,-0
 .10424348,-0.10729772,0.05252925,-0.00066649,0.00089723,-0.00080650,0.
 00003963,-0.00030602,-0.00005655,0.00013439,0.00015555,-0.00000468,0.0
 0002099,-0.00003052,-0.00000807,0.00005847,-0.00007443,-0.00005001,-0.
 00008346,0.00006039,0.00004754,-0.00000471,0.00000602,-0.00001504,-0.0
 0000428,0.00000948,0.00000215,-0.00001087,-0.00002316,-0.00000810,0.00
 000283,0.00002833,0.00001291,-0.00000431,-0.00004790,-0.00000109,0.000
 00328,-0.00000118,0.00000265,-0.00000688,0.00000759,-0.00000011,-0.000
 19864,-0.00013747,0.00054494,0.00001361,-0.00000624,0.00002343,-0.0000
 2762,0.00002424,-0.00001183,-0.00001327,0.00002549,0.00000471,-0.00000
 823,0.00000352,0.00000106,-0.00000183,-0.00000484,0.00000570,0.0000088
 9,-0.00000353,-0.00000189,0.00034804,-0.00004759,0.00013353,-0.0002117
 3,-0.00026739,-0.00001626,0.00006629,0.00019036,0.00001330,0.00235130,
 0.00672829,-0.00304463,-0.01132334,-0.02383908,0.01085473,0.10836365,0
 .00008009,0.00007573,0.00013552,0.00038125,0.00004211,-0.00035064,0.00
 038943,0.00073948,-0.00141562,-0.00038252,-0.00031819,0.00011762,-0.00
 077343,-0.00535812,0.00200166,0.00083212,0.00174674,0.00088424,-0.0000
 2004,0.00000703,-0.00000269,-0.00000279,0.00001448,0.00001638,0.000388
 50,-0.00027816,-0.00002152,0.00006023,-0.00002464,-0.00012352,-0.10199
 045,-0.23043158,0.08961040,0.00030626,-0.00058639,0.00187639,-0.000135
 69,0.00056211,0.00001468,-0.00017285,-0.00040365,0.00008547,0.00001539
 ,0.00002864,0.00000957,-0.00013250,0.00009729,0.00003332,0.00010957,-0
 .00007967,-0.00003829,0.00001948,0.00002020,-0.00000992,0.00001149,-0.
 00001335,-0.00000664,0.00001358,0.00002113,0.00000797,0.00004644,-0.00
 002302,-0.00002843,-0.00002749,0.00010277,0.00003347,0.00000420,-0.000
 00292,0.00000030,0.00000755,-0.00001501,-0.00000334,0.00004116,0.00028
 360,-0.00135241,-0.00000701,0.00000702,-0.00000531,0.00002595,-0.00000
 420,-0.00000107,-0.00000877,-0.00000429,-0.00001169,0.00001378,-0.0000
 0776,-0.00000572,0.00000266,0.00000068,-0.00000191,-0.00000770,0.00000
 303,-0.00000528,-0.00017342,0.00035528,0.00017147,-0.00005162,-0.00009
 695,0.00006451,0.00020908,0.00018805,-0.00003301,-0.01059708,-0.016321
 38,0.01007556,0.00383495,0.00516867,-0.00335681,0.10919253,0.24383252,
 0.00020260,-0.00036006,0.00000631,-0.00008542,-0.00016717,-0.00000524,
 0.00099128,0.00214051,0.00129505,0.00055868,0.00186890,-0.00076229,0.0
 1141251,0.02861239,-0.01718686,-0.00233552,-0.00065380,-0.00586855,-0.
 00001668,0.00002375,-0.00001734,-0.00000219,0.00001513,-0.00000672,-0.
 00021471,0.00014481,-0.00000927,0.00000842,-0.00017330,-0.00002233,0.0
 4549081,0.08126866,-0.08545692,0.00007486,-0.00033929,0.00077512,0.000
 33575,-0.00071384,-0.00033336,-0.00016857,0.00002817,0.00021435,-0.000
 00991,0.00000469,-0.00000880,-0.00002860,0.00000416,-0.00006720,-0.000
 04863,0.00034755,0.00022251,-0.00000385,-0.00000469,-0.00004080,-0.000
 00455,-0.00000528,-0.00000190,-0.00000365,-0.00000218,0.00000060,-0.00
 008224,0.00001041,0.00000342,0.00010493,-0.00005716,-0.00000746,-0.000
 00201,-0.00000139,-0.00000066,-0.00000712,0.00001691,-0.00000296,-0.00
 002422,0.00018988,-0.00042665,-0.00001321,-0.00000097,-0.00001770,-0.0
 0002968,0.00000056,-0.00000030,0.00002838,0.00001683,0.00002956,-0.000
 00232,-0.00000208,0.00000655,-0.00000976,0.00000132,0.00000199,-0.0000
 0648,-0.00000456,0.00000668,-0.00037678,-0.00076736,-0.00027284,-0.000
 00423,-0.00023282,-0.00008143,-0.00030986,-0.00004535,0.00032412,-0.00
 847942,-0.01421031,0.00786774,0.00083028,0.00068834,-0.00032164,-0.049
 31257,-0.09772114,0.10030341,-0.03912168,0.00273026,0.00871982,-0.0380
 6581,0.00183943,0.01502333,-0.00642820,0.01079518,0.00752379,0.0007745
 7,0.00158982,0.00093431,-0.01223330,0.00562789,0.00113122,-0.01394764,
 -0.01634822,0.00477139,-0.00047418,0.00030670,-0.00151002,-0.00406433,
 0.00500074,-0.00145855,-0.08486654,0.03353258,0.00817932,0.00149999,0.
 00100829,0.00035146,-0.00751004,0.00270460,-0.01144221,-0.10452821,0.0
 0815480,0.01040094,-0.01661630,-0.02109505,-0.00013289,-0.04104216,-0.
 00800868,-0.00417003,-0.00269283,0.01053556,0.00012456,0.00316591,0.00
 100230,0.00112413,-0.00204039,0.00423281,0.00199569,-0.00028074,-0.000
 88034,-0.00027095,0.00032139,-0.00015101,-0.00064147,0.00017522,0.0019
 6029,0.00092809,-0.00145916,0.00365568,0.00122930,-0.00020445,-0.00364
 748,-0.00079818,0.00049002,0.00030504,0.00015065,0.00008981,0.00022105
 ,-0.00004422,0.03455280,-0.00386514,0.01059713,-0.00019836,0.00008308,
 0.00023436,-0.00028300,0.00023006,-0.00009178,-0.00081910,0.00063559,-
 0.00025617,0.00090388,0.00041042,-0.00055380,0.00030154,0.00001444,-0.
 00044470,-0.00165397,-0.00022960,0.00034600,0.00133627,-0.00109692,-0.
 00016695,0.00124090,-0.00172364,-0.00123919,0.00040438,-0.00019378,-0.
 00039108,0.00032037,0.00083515,0.00177475,0.00133407,-0.00040307,0.002
 94572,0.00054786,-0.00151327,0.00155287,0.33115885,-0.02183496,-0.1166
 2829,-0.01510771,0.00369893,-0.02356965,0.00164409,0.01163221,-0.00219
 838,-0.00187271,-0.00156826,0.00083149,-0.00034404,0.00727832,-0.03081
 889,-0.00055826,-0.00722216,0.00146897,-0.00074193,0.00370450,0.001990
 09,0.00058687,-0.00568041,0.00984163,0.00019372,0.02880386,-0.06748374
 ,-0.00277109,-0.00118956,-0.00276692,0.00140836,0.00295907,-0.00138066
 ,0.00183573,0.00973555,-0.07822715,-0.01727270,-0.02132638,-0.00653838
 ,0.00156692,-0.00865456,-0.06998582,-0.00905361,0.01102270,-0.01496570
 ,0.00256984,0.01121002,-0.02500900,-0.00415997,0.00396487,0.00158013,-
 0.00098058,0.00041769,0.00083002,0.00002247,-0.00008381,0.00091167,-0.
 00001122,-0.00175052,-0.00474817,-0.00279429,-0.00069793,0.00329155,-0
 .00010454,-0.00137661,-0.00325854,-0.00015181,-0.00008523,0.00059262,-
 0.00011831,-0.00001552,0.00014841,0.00000519,-0.00734090,0.02684097,0.
 02822409,0.00036845,0.00082405,0.00024174,0.00021109,-0.00018791,0.001
 53526,0.00075022,-0.00044218,-0.00032817,0.00025062,-0.00003214,-0.000
 00305,0.00120450,0.00054682,-0.00064331,-0.00326113,-0.00070080,0.0020
 7899,0.00119929,-0.00112649,0.00019184,0.00039956,-0.00203846,-0.00096
 751,0.00047284,0.00069961,-0.00042623,-0.00086939,-0.00054614,-0.00041
 972,0.00058043,0.00055562,-0.00032963,0.00044713,0.00065482,0.00009630
 ,-0.02150282,0.40715121,-0.00230168,-0.03682577,-0.02111334,0.01015857
 ,0.00229657,-0.05089080,0.00769303,-0.00058311,0.00119366,-0.00114191,
 -0.00023905,-0.00207221,0.01328356,0.00009019,-0.02936246,0.00530912,0
 .00152872,0.00155969,-0.01341823,0.01010841,0.00207513,0.00362179,-0.0
 0464839,0.00222870,0.00213083,0.00115874,-0.04790099,0.00089425,0.0015
 6534,-0.00082422,-0.01165780,0.00139761,-0.00383237,0.01687023,-0.0092
 3202,-0.09203952,0.00149483,0.00073922,0.00617888,0.00093800,-0.006872
 91,-0.03841030,0.00345586,-0.00595305,0.00280255,0.00053210,-0.0023212
 4,0.00444583,0.00113387,0.00089834,0.00374942,0.00023617,0.00025841,-0
 .00017947,-0.00003891,0.00238944,0.00116986,-0.00093248,-0.00234353,-0
 .00060399,-0.00150841,-0.00259192,0.00360613,0.00246029,-0.00013128,-0
 .00124392,-0.00021472,0.00001614,-0.00031335,-0.00007718,0.00007182,-0
 .00046324,0.01305654,0.01696523,-0.06224169,-0.00084854,0.00107426,-0.
 00510648,-0.00068064,-0.00007638,0.00075644,0.00158678,0.00026188,0.00
 131326,-0.00178055,-0.00017385,0.00109019,0.00005475,0.00023194,-0.000
 09355,0.00167482,0.00082158,0.00005077,-0.00019552,-0.00023076,0.00027
 886,0.00075987,-0.00174623,-0.00107768,0.00025523,-0.00019326,-0.00099
 202,0.00020042,0.00098508,0.00041897,-0.00185996,0.00049570,-0.0008843
 5,-0.00050941,-0.00065123,-0.00011090,-0.05057509,0.02332987,0.3261455
 1,-0.32587652,-0.13363499,0.22378279,0.00006667,-0.00036315,-0.0002792
 2,-0.00065649,0.00046715,-0.00014317,-0.00000807,-0.00001329,-0.000060
 54,-0.00055834,-0.00000801,0.00025460,-0.00011539,0.00021558,-0.000149
 59,-0.00024731,0.00002754,0.00001693,-0.00000160,0.00002494,0.00008174
 ,0.00049018,0.00075257,-0.00041155,-0.00000559,-0.00006092,0.00000803,
 0.00007484,-0.00019805,0.00032220,0.00032681,-0.00069172,0.00146176,0.
 00025131,0.00037806,0.00014469,0.00013773,-0.00033455,0.00054515,0.000
 03551,-0.00030500,0.00013243,0.00027933,0.00039437,-0.00020748,-0.0000
 2853,-0.00018519,-0.00004383,0.00002042,0.00002575,-0.00000002,-0.0000
 1816,-0.00000728,0.00002615,-0.00005070,-0.00008172,-0.00007580,-0.000
 24400,-0.00021768,-0.00007333,0.00018376,0.00023240,0.00002268,-0.0000
 0788,0.00003068,0.00001309,-0.00000533,-0.00001390,0.00000297,-0.00001
 622,0.00004292,-0.00103715,-0.00003269,-0.00000936,-0.00006819,-0.0000
 0635,0.00001738,-0.00007766,0.00003738,-0.00004588,0.00005066,0.000002
 91,0.00006644,0.00006379,-0.00037204,0.00007864,-0.00005116,-0.0000642
 9,-0.00016993,-0.00003198,0.00016473,-0.00066642,0.00056469,-0.0001787
 7,-0.00042442,-0.00001160,0.00027008,0.00017769,-0.00021286,0.00000212
 ,0.00000539,-0.00007748,0.00001907,0.00006476,-0.00006981,-0.00004531,
 0.00001093,-0.00000919,-0.00008748,0.00414828,-0.00005990,0.32626421,-
 0.11687673,-0.06794703,0.07553134,-0.00013799,-0.00037451,0.00005409,0
 .00072537,0.00031436,0.00009205,-0.00000770,-0.00000399,-0.00008716,0.
 00135365,-0.00081606,-0.00009368,-0.00013444,-0.00020704,0.00008361,0.
 00007685,0.00002536,-0.00007909,0.00005877,-0.00025705,-0.00005534,0.0
 0026466,-0.00037019,0.00075337,0.00002636,0.00006063,-0.00003479,0.000
 04222,0.00005984,-0.00023876,-0.00048369,0.00019096,0.00129734,0.00013
 663,0.00040193,0.00008736,0.00152852,-0.00259629,-0.00195998,-0.000148
 68,0.00002935,-0.00020059,-0.00055554,-0.00049358,0.00014011,0.0000784
 4,-0.00006353,0.00010874,0.00002828,0.00000977,0.00000188,0.00000905,-
 0.00002725,-0.00004343,0.00007473,0.00008817,0.00003700,0.00021314,-0.
 00016336,0.00007256,0.00000218,0.00002883,-0.00002566,-0.00004448,-0.0
 0006957,-0.00002560,0.00000234,0.00000952,-0.00001023,0.00016782,-0.00
 036450,-0.00154184,-0.00003359,-0.00000809,0.00000360,-0.00002660,-0.0
 0001928,0.00004929,0.00006837,0.00001569,0.00004634,0.00008459,-0.0001
 5670,-0.00012499,0.00034037,-0.00000057,0.00010108,0.00010822,0.000149
 44,-0.00004405,-0.00052910,0.00021071,-0.00015867,0.00019598,0.0000803
 1,0.00001392,-0.00013028,-0.00011451,0.00010646,-0.00000699,0.00001210
 ,0.00003319,0.00006619,-0.00000623,0.00006457,-0.00005418,0.00001790,-
 0.00001651,-0.01675273,-0.00610625,0.00812946,0.13026996,0.07846071,0.
 23113901,0.09025272,-0.16018571,0.00035713,0.00078141,-0.00128531,-0.0
 0034461,-0.00020507,-0.00015515,-0.00008021,-0.00001111,0.00005938,-0.
 00077776,-0.00000656,-0.00002549,0.00007422,0.00002484,-0.00004697,-0.
 00003663,0.00000031,0.00001377,0.00010955,0.00006150,0.00008955,0.0004
 9953,0.00052167,0.00054946,-0.00002640,-0.00003052,0.00005308,0.000028
 19,-0.00009167,0.00019309,-0.00133951,-0.00154341,0.00205590,0.0004582
 6,-0.00001273,0.00006725,-0.00000363,-0.00186729,0.00005458,-0.0001229
 2,-0.00014109,-0.00007328,-0.00016634,0.00020286,-0.00017104,-0.000110
 50,0.00000880,0.00002194,-0.00000905,-0.00001583,-0.00000639,0.0000206
 8,-0.00004335,0.00000112,0.00002087,-0.00000518,-0.00001580,-0.0000903
 9,-0.00021188,-0.00009242,0.00015172,0.00009590,0.00000099,-0.00001811
 ,-0.00003924,0.00001995,-0.00000569,-0.00000334,0.00000767,0.00062301,
 0.00061290,-0.00181949,-0.00001705,-0.00002935,-0.00000309,0.00004943,
 0.00004851,-0.00012714,-0.00004651,-0.00004141,-0.00005449,0.00007061,
 -0.00013976,-0.00010806,-0.00015701,0.00006028,0.00010305,-0.00001163,
 0.00000373,-0.00007362,0.00007186,0.00008835,-0.00010452,0.00004790,0.
 00003392,0.00009010,-0.00015943,0.00000247,0.00016914,-0.00000986,0.00
 002123,-0.00000902,0.00000683,0.00004756,-0.00005447,-0.00000121,0.000
 00768,-0.00002729,-0.00585156,-0.00637088,0.00069300,-0.22434281,-0.08
 206699,0.16019571\\-0.00001098,-0.00000862,0.00000458,0.00000036,-0.00
 000352,-0.00000318,-0.00000538,0.00000172,-0.00000436,0.00000331,-0.00
 000091,0.00000039,-0.00000318,0.00000663,-0.00000620,-0.00000414,-0.00
 000490,0.00000157,0.00000129,-0.00000286,-0.00000008,0.00000150,-0.000
 00210,0.00000067,-0.00000701,0.00000126,-0.00000004,0.00000099,-0.0000
 0016,0.00000004,-0.00000305,-0.00000077,0.00000381,-0.00000426,-0.0000
 0487,0.00000568,-0.00000217,0.00000029,0.00000234,-0.00000061,-0.00000
 619,0.00000160,0.00000038,0.00000287,-0.00000209,-0.00000020,0.0000085
 4,0.00000130,0.00000119,-0.00000102,-0.00000048,0.00000037,-0.00000014
 ,0.00000039,-0.00000015,-0.00000360,0.00000009,0.00000059,0.00000016,0
 .00000119,-0.00000184,-0.00000375,-0.00000072,0.00000259,0.00000043,0.
 00000041,0.00000077,0.00000027,0.00000091,0.00000033,-0.00000041,0.000
 00093,0.00000044,0.00000042,-0.00000673,0.00000101,0.00000184,-0.00000
 106,-0.00000138,0.00000139,0.00000027,0.00000073,-0.00000035,-0.000000
 30,0.00000005,-0.00000176,-0.00000118,-0.00000320,0.00000365,-0.000003
 28,0.00000080,0.00000236,0.00000244,0.00000313,0.00000042,0.00000164,0
 .00000021,-0.00000184,0.00000004,0.00000054,0.00000059,-0.00000151,0.0
 0000111,-0.00000007,0.00000062,0.00000018,-0.00000100,0.,-0.00000022,0
 .00000025,-0.00000097,0.00001743,0.00000781,0.00000809,0.00000845,0.00
 000793,-0.00000683\\\@


 THE POLHOLDE ROLLS WITHOUT SLIPPING ON THE HERPOLHOLDE LYING IN
 THE INVARIABLE PLANE.
 H.GOLDSTEIN, "CLASSICAL MECHANICS", PG 161
 Job cpu time:       0 days  9 hours 30 minutes 17.9 seconds.
 Elapsed time:       0 days  0 hours 28 minutes 33.2 seconds.
 File lengths (MBytes):  RWF=   1250 Int=      0 D2E=      0 Chk=     19 Scr=      1
 Normal termination of Gaussian 16 at Mon Jun 29 00:51:22 2020.
