 Entering Gaussian System, Link 0=g16
 Initial command:
 /cluster/chemistry/gaussian/g16/l1.exe "/scratch/js1212.758395/scratch/Gau-4678.inp" -scrdir="/scratch/js1212.758395/scratch/"
 Entering Link 1 = /cluster/chemistry/gaussian/g16/l1.exe PID=      4680.
  
 Copyright (c) 1988,1990,1992,1993,1995,1998,2003,2009,2016,
            Gaussian, Inc.  All Rights Reserved.
  
 This is part of the Gaussian(R) 16 program.  It is based on
 the Gaussian(R) 09 system (copyright 2009, Gaussian, Inc.),
 the Gaussian(R) 03 system (copyright 2003, Gaussian, Inc.),
 the Gaussian(R) 98 system (copyright 1998, Gaussian, Inc.),
 the Gaussian(R) 94 system (copyright 1995, Gaussian, Inc.),
 the Gaussian 92(TM) system (copyright 1992, Gaussian, Inc.),
 the Gaussian 90(TM) system (copyright 1990, Gaussian, Inc.),
 the Gaussian 88(TM) system (copyright 1988, Gaussian, Inc.),
 the Gaussian 86(TM) system (copyright 1986, Carnegie Mellon
 University), and the Gaussian 82(TM) system (copyright 1983,
 Carnegie Mellon University). Gaussian is a federally registered
 trademark of Gaussian, Inc.
  
 This software contains proprietary and confidential information,
 including trade secrets, belonging to Gaussian, Inc.
  
 This software is provided under written license and may be
 used, copied, transmitted, or stored only in accord with that
 written license.
  
 The following legend is applicable only to US Government
 contracts under FAR:
  
                    RESTRICTED RIGHTS LEGEND
  
 Use, reproduction and disclosure by the US Government is
 subject to restrictions as set forth in subparagraphs (a)
 and (c) of the Commercial Computer Software - Restricted
 Rights clause in FAR 52.227-19.
  
 Gaussian, Inc.
 340 Quinnipiac St., Bldg. 40, Wallingford CT 06492
  
  
 ---------------------------------------------------------------
 Warning -- This program may not be used in any manner that
 competes with the business of Gaussian, Inc. or will provide
 assistance to any competitor of Gaussian, Inc.  The licensee
 of this program is prohibited from giving any competitor of
 Gaussian, Inc. access to this program.  By using this program,
 the user acknowledges that Gaussian, Inc. is engaged in the
 business of creating and licensing software in the field of
 computational chemistry and represents and warrants to the
 licensee that it is not a competitor of Gaussian, Inc. and that
 it will not use this program in any manner prohibited above.
 ---------------------------------------------------------------
  

 Cite this work as:
 Gaussian 16, Revision A.03,
 M. J. Frisch, G. W. Trucks, H. B. Schlegel, G. E. Scuseria, 
 M. A. Robb, J. R. Cheeseman, G. Scalmani, V. Barone, 
 G. A. Petersson, H. Nakatsuji, X. Li, M. Caricato, A. V. Marenich, 
 J. Bloino, B. G. Janesko, R. Gomperts, B. Mennucci, H. P. Hratchian, 
 J. V. Ortiz, A. F. Izmaylov, J. L. Sonnenberg, D. Williams-Young, 
 F. Ding, F. Lipparini, F. Egidi, J. Goings, B. Peng, A. Petrone, 
 T. Henderson, D. Ranasinghe, V. G. Zakrzewski, J. Gao, N. Rega, 
 G. Zheng, W. Liang, M. Hada, M. Ehara, K. Toyota, R. Fukuda, 
 J. Hasegawa, M. Ishida, T. Nakajima, Y. Honda, O. Kitao, H. Nakai, 
 T. Vreven, K. Throssell, J. A. Montgomery, Jr., J. E. Peralta, 
 F. Ogliaro, M. J. Bearpark, J. J. Heyd, E. N. Brothers, K. N. Kudin, 
 V. N. Staroverov, T. A. Keith, R. Kobayashi, J. Normand, 
 K. Raghavachari, A. P. Rendell, J. C. Burant, S. S. Iyengar, 
 J. Tomasi, M. Cossi, J. M. Millam, M. Klene, C. Adamo, R. Cammi, 
 J. W. Ochterski, R. L. Martin, K. Morokuma, O. Farkas, 
 J. B. Foresman, and D. J. Fox, Gaussian, Inc., Wallingford CT, 2016.
 
 ******************************************
 Gaussian 16:  ES64L-G16RevA.03 25-Dec-2016
                29-Jul-2020 
 ******************************************
 %rwf=/scratch/js1212.758395/3-Full-Disp-OO-Scan-GPO-Geo6-T-GPO.rwf
 %nosave
 %nprocshared=20
 Will use up to   20 processors via shared memory.
 %mem=3000MB
 %chk=/scratch/js1212.758395/3-Full-Disp-OO-Scan-GPO-Geo6-T-GPO.chk
 ------------------------------------------------------------------
 # opt=ModRedundant genecp pbe1pbe EmpiricalDispersion=GD3BJ NoSymm
 ------------------------------------------------------------------
 1/18=120,19=15,26=3,38=1/1,3;
 2/9=110,12=2,15=1,17=6,18=5,40=1/2;
 3/5=7,11=2,16=1,17=8,25=1,30=1,71=1,74=-13,124=41/1,2,3;
 4//1;
 5/5=2,38=5/2;
 6/7=2,8=2,9=2,10=2,28=1/1;
 7/30=1/1,2,3,16;
 1/18=20,19=15,26=3/3(2);
 2/9=110,15=1/2;
 99//99;
 2/9=110,15=1/2;
 3/5=7,6=1,11=2,16=1,17=8,25=1,30=1,71=1,74=-13,82=7,124=41/1,2,3;
 4/5=5,16=3,69=1/1;
 5/5=2,38=5/2;
 7/30=1/1,2,3,16;
 1/18=20,19=15,26=3/3(-5);
 2/9=110,15=1/2;
 6/7=2,8=2,9=2,10=2,19=2,28=1/1;
 99/9=1/99;
 -------------------
 Title Card Required
 -------------------
 Symbolic Z-matrix:
 Charge =  0 Multiplicity = 3
 N                    -0.70611   1.38958  -0.04873 
 C                    -1.91121   1.87766   0.30347 
 C                     0.19171   2.16724  -0.68823 
 C                    -2.24034   3.20953   0.09102 
 C                    -1.29918   4.0459   -0.50625 
 C                    -0.07858   3.51704  -0.91035 
 C                    -2.82524   0.86476   0.9212 
 H                    -3.22335   3.57942   0.3842 
 H                    -1.52693   5.0993   -0.67807 
 H                     0.66352   4.13778  -1.41346 
 C                     1.42929   1.48396  -1.1747 
 N                    -2.73906  -0.42278   0.21295 
 H                    -3.85887   1.25157   0.96069 
 H                    -2.49997   0.68845   1.95968 
 H                     1.18054   1.05155  -2.16073 
 P                     1.79367  -0.04935  -0.17007 
 H                     2.269     2.18399  -1.28702 
 Ru                   -0.39386  -0.63649   0.10544 
 C                    -3.29168  -0.32005  -1.15358 
 C                     3.01156  -1.00141  -1.28694 
 C                    -3.40966  -1.45832   1.02459 
 C                     2.71635   0.61174   1.36472 
 C                     2.18883  -1.75866  -2.33144 
 C                     3.77189  -2.03431  -0.45362 
 C                     3.9935   -0.086    -2.02313 
 C                     1.84378   1.70341   1.99551 
 C                     4.07469   1.23321   1.0371 
 C                     2.90757  -0.50827   2.39207 
 C                    -0.37611  -0.85124   1.94305 
 O                    -0.44225  -1.10808   3.08249 
 H                    -2.71922   0.46189  -1.66965 
 C                    -4.78683  -0.05971  -1.25227 
 H                    -3.00591  -1.23921  -1.67704 
 H                    -2.86236  -1.50844   1.97735 
 C                    -3.41325  -2.82095   0.36323 
 H                    -4.44115  -1.13293   1.26859 
 O                    -0.37636  -2.50217  -0.61824 
 H                    -0.12786  -3.20297   0.00491 
 O                    -0.59228  -0.81543  -1.84188 
 H                    -0.48122  -1.76437  -1.97724 
 H                    -2.40935  -3.03756  -0.03624 
 H                    -4.13892  -2.88149  -0.46162 
 H                    -3.69015  -3.58532   1.10435 
 H                    -5.06296   0.00473  -2.31551 
 H                    -5.09264   0.88927  -0.78401 
 H                    -5.38991  -0.86563  -0.80729 
 H                     2.88842  -2.30523  -2.9871 
 H                     1.57348  -1.08705  -2.94425 
 H                     1.50084  -2.46494  -1.84705 
 H                     4.31613  -2.70635  -1.13758 
 H                     3.0853   -2.65463   0.14249 
 H                     4.51325  -1.58188   0.21938 
 H                     4.65481  -0.71583  -2.64187 
 H                     4.63253   0.50772  -1.35872 
 H                     3.47349   0.59773  -2.70981 
 H                     4.81      0.48925   0.70336 
 H                     4.47755   1.70162   1.95075 
 H                     4.00361   2.02147   0.2723 
 H                     3.59671  -1.28625   2.04269 
 H                     1.95914  -0.98585   2.66437 
 H                     3.33685  -0.07439   3.31081 
 H                     2.30995   2.01989   2.94292 
 H                     0.8299    1.34619   2.21775 
 H                     1.76641   2.59419   1.35469 
 
 The following ModRedundant input section has been read:
 B      37      39 F                                                           
 

 GradGradGradGradGradGradGradGradGradGradGradGradGradGradGradGradGradGrad
 Berny optimization.
 Initialization pass.
                           ----------------------------
                           !    Initial Parameters    !
                           ! (Angstroms and Degrees)  !
 --------------------------                            --------------------------
 ! Name  Definition              Value          Derivative Info.                !
 --------------------------------------------------------------------------------
 ! R1    R(1,2)                  1.347          estimate D2E/DX2                !
 ! R2    R(1,3)                  1.349          estimate D2E/DX2                !
 ! R3    R(1,18)                 2.0558         estimate D2E/DX2                !
 ! R4    R(2,4)                  1.3883         estimate D2E/DX2                !
 ! R5    R(2,7)                  1.4977         estimate D2E/DX2                !
 ! R6    R(3,6)                  1.3944         estimate D2E/DX2                !
 ! R7    R(3,11)                 1.495          estimate D2E/DX2                !
 ! R8    R(4,5)                  1.3936         estimate D2E/DX2                !
 ! R9    R(4,8)                  1.0904         estimate D2E/DX2                !
 ! R10   R(5,6)                  1.3903         estimate D2E/DX2                !
 ! R11   R(5,9)                  1.0914         estimate D2E/DX2                !
 ! R12   R(6,10)                 1.0905         estimate D2E/DX2                !
 ! R13   R(7,12)                 1.472          estimate D2E/DX2                !
 ! R14   R(7,13)                 1.1043         estimate D2E/DX2                !
 ! R15   R(7,14)                 1.1024         estimate D2E/DX2                !
 ! R16   R(11,15)                1.105          estimate D2E/DX2                !
 ! R17   R(11,16)                1.869          estimate D2E/DX2                !
 ! R18   R(11,17)                1.099          estimate D2E/DX2                !
 ! R19   R(12,19)                1.4776         estimate D2E/DX2                !
 ! R20   R(12,21)                1.4768         estimate D2E/DX2                !
 ! R21   R(16,18)                2.2817         estimate D2E/DX2                !
 ! R22   R(16,20)                1.9071         estimate D2E/DX2                !
 ! R23   R(16,22)                1.9089         estimate D2E/DX2                !
 ! R24   R(18,29)                1.8502         estimate D2E/DX2                !
 ! R25   R(18,37)                2.0012         estimate D2E/DX2                !
 ! R26   R(18,39)                1.9656         estimate D2E/DX2                !
 ! R27   R(19,31)                1.0979         estimate D2E/DX2                !
 ! R28   R(19,32)                1.5209         estimate D2E/DX2                !
 ! R29   R(19,33)                1.0957         estimate D2E/DX2                !
 ! R30   R(20,23)                1.5301         estimate D2E/DX2                !
 ! R31   R(20,24)                1.5295         estimate D2E/DX2                !
 ! R32   R(20,25)                1.5311         estimate D2E/DX2                !
 ! R33   R(21,34)                1.0999         estimate D2E/DX2                !
 ! R34   R(21,35)                1.5147         estimate D2E/DX2                !
 ! R35   R(21,36)                1.1088         estimate D2E/DX2                !
 ! R36   R(22,26)                1.5333         estimate D2E/DX2                !
 ! R37   R(22,27)                1.5293         estimate D2E/DX2                !
 ! R38   R(22,28)                1.5318         estimate D2E/DX2                !
 ! R39   R(23,47)                1.1037         estimate D2E/DX2                !
 ! R40   R(23,48)                1.0978         estimate D2E/DX2                !
 ! R41   R(23,49)                1.0985         estimate D2E/DX2                !
 ! R42   R(24,50)                1.1026         estimate D2E/DX2                !
 ! R43   R(24,51)                1.1007         estimate D2E/DX2                !
 ! R44   R(24,52)                1.0987         estimate D2E/DX2                !
 ! R45   R(25,53)                1.1031         estimate D2E/DX2                !
 ! R46   R(25,54)                1.0965         estimate D2E/DX2                !
 ! R47   R(25,55)                1.0997         estimate D2E/DX2                !
 ! R48   R(26,62)                1.1023         estimate D2E/DX2                !
 ! R49   R(26,63)                1.0977         estimate D2E/DX2                !
 ! R50   R(26,64)                1.1            estimate D2E/DX2                !
 ! R51   R(27,56)                1.098          estimate D2E/DX2                !
 ! R52   R(27,57)                1.1029         estimate D2E/DX2                !
 ! R53   R(27,58)                1.1006         estimate D2E/DX2                !
 ! R54   R(28,59)                1.0965         estimate D2E/DX2                !
 ! R55   R(28,60)                1.0962         estimate D2E/DX2                !
 ! R56   R(28,61)                1.103          estimate D2E/DX2                !
 ! R57   R(29,30)                1.1699         estimate D2E/DX2                !
 ! R58   R(32,44)                1.1004         estimate D2E/DX2                !
 ! R59   R(32,45)                1.1015         estimate D2E/DX2                !
 ! R60   R(32,46)                1.1005         estimate D2E/DX2                !
 ! R61   R(35,41)                1.102          estimate D2E/DX2                !
 ! R62   R(35,42)                1.1003         estimate D2E/DX2                !
 ! R63   R(35,43)                1.1001         estimate D2E/DX2                !
 ! R64   R(37,38)                0.9701         estimate D2E/DX2                !
 ! R65   R(37,39)                2.095          Frozen                          !
 ! R66   R(39,40)                0.965          estimate D2E/DX2                !
 ! A1    A(2,1,3)              120.6958         estimate D2E/DX2                !
 ! A2    A(2,1,18)             118.2538         estimate D2E/DX2                !
 ! A3    A(3,1,18)             120.1724         estimate D2E/DX2                !
 ! A4    A(1,2,4)              121.3122         estimate D2E/DX2                !
 ! A5    A(1,2,7)              114.128          estimate D2E/DX2                !
 ! A6    A(4,2,7)              124.5594         estimate D2E/DX2                !
 ! A7    A(1,3,6)              120.3007         estimate D2E/DX2                !
 ! A8    A(1,3,11)             116.2137         estimate D2E/DX2                !
 ! A9    A(6,3,11)             123.4384         estimate D2E/DX2                !
 ! A10   A(2,4,5)              118.767          estimate D2E/DX2                !
 ! A11   A(2,4,8)              119.868          estimate D2E/DX2                !
 ! A12   A(5,4,8)              121.3634         estimate D2E/DX2                !
 ! A13   A(4,5,6)              119.2887         estimate D2E/DX2                !
 ! A14   A(4,5,9)              120.3871         estimate D2E/DX2                !
 ! A15   A(6,5,9)              120.3063         estimate D2E/DX2                !
 ! A16   A(3,6,5)              119.4796         estimate D2E/DX2                !
 ! A17   A(3,6,10)             119.512          estimate D2E/DX2                !
 ! A18   A(5,6,10)             121.0002         estimate D2E/DX2                !
 ! A19   A(2,7,12)             110.9392         estimate D2E/DX2                !
 ! A20   A(2,7,13)             110.4314         estimate D2E/DX2                !
 ! A21   A(2,7,14)             108.4594         estimate D2E/DX2                !
 ! A22   A(12,7,13)            112.233          estimate D2E/DX2                !
 ! A23   A(12,7,14)            107.2221         estimate D2E/DX2                !
 ! A24   A(13,7,14)            107.367          estimate D2E/DX2                !
 ! A25   A(3,11,15)            106.4299         estimate D2E/DX2                !
 ! A26   A(3,11,16)            111.188          estimate D2E/DX2                !
 ! A27   A(3,11,17)            112.0017         estimate D2E/DX2                !
 ! A28   A(15,11,16)           101.6836         estimate D2E/DX2                !
 ! A29   A(15,11,17)           109.2718         estimate D2E/DX2                !
 ! A30   A(16,11,17)           115.3754         estimate D2E/DX2                !
 ! A31   A(7,12,19)            111.2397         estimate D2E/DX2                !
 ! A32   A(7,12,21)            108.8035         estimate D2E/DX2                !
 ! A33   A(19,12,21)           112.781          estimate D2E/DX2                !
 ! A34   A(11,16,18)            95.1118         estimate D2E/DX2                !
 ! A35   A(11,16,20)           102.6656         estimate D2E/DX2                !
 ! A36   A(11,16,22)           104.0222         estimate D2E/DX2                !
 ! A37   A(18,16,20)           123.677          estimate D2E/DX2                !
 ! A38   A(18,16,22)           117.0939         estimate D2E/DX2                !
 ! A39   A(20,16,22)           109.5772         estimate D2E/DX2                !
 ! A40   A(1,18,16)             83.2784         estimate D2E/DX2                !
 ! A41   A(1,18,29)            100.9719         estimate D2E/DX2                !
 ! A42   A(1,18,37)            153.2552         estimate D2E/DX2                !
 ! A43   A(1,18,39)             90.0052         estimate D2E/DX2                !
 ! A44   A(16,18,29)            98.0822         estimate D2E/DX2                !
 ! A45   A(16,18,37)           100.8276         estimate D2E/DX2                !
 ! A46   A(16,18,39)            90.0333         estimate D2E/DX2                !
 ! A47   A(29,18,37)           104.5292         estimate D2E/DX2                !
 ! A48   A(37,18,39)            63.7521         estimate D2E/DX2                !
 ! A49   A(12,19,31)           106.8106         estimate D2E/DX2                !
 ! A50   A(12,19,32)           116.0778         estimate D2E/DX2                !
 ! A51   A(12,19,33)           106.6167         estimate D2E/DX2                !
 ! A52   A(31,19,32)           111.1105         estimate D2E/DX2                !
 ! A53   A(31,19,33)           103.7036         estimate D2E/DX2                !
 ! A54   A(32,19,33)           111.6545         estimate D2E/DX2                !
 ! A55   A(16,20,23)           107.6656         estimate D2E/DX2                !
 ! A56   A(16,20,24)           109.6037         estimate D2E/DX2                !
 ! A57   A(16,20,25)           113.1216         estimate D2E/DX2                !
 ! A58   A(23,20,24)           107.7574         estimate D2E/DX2                !
 ! A59   A(23,20,25)           108.2104         estimate D2E/DX2                !
 ! A60   A(24,20,25)           110.2987         estimate D2E/DX2                !
 ! A61   A(12,21,34)           106.3849         estimate D2E/DX2                !
 ! A62   A(12,21,35)           113.0755         estimate D2E/DX2                !
 ! A63   A(12,21,36)           109.7312         estimate D2E/DX2                !
 ! A64   A(34,21,35)           109.7803         estimate D2E/DX2                !
 ! A65   A(34,21,36)           106.5972         estimate D2E/DX2                !
 ! A66   A(35,21,36)           110.9709         estimate D2E/DX2                !
 ! A67   A(16,22,26)           107.594          estimate D2E/DX2                !
 ! A68   A(16,22,27)           113.4423         estimate D2E/DX2                !
 ! A69   A(16,22,28)           110.2647         estimate D2E/DX2                !
 ! A70   A(26,22,27)           107.7142         estimate D2E/DX2                !
 ! A71   A(26,22,28)           108.403          estimate D2E/DX2                !
 ! A72   A(27,22,28)           109.2647         estimate D2E/DX2                !
 ! A73   A(20,23,47)           108.047          estimate D2E/DX2                !
 ! A74   A(20,23,48)           112.3129         estimate D2E/DX2                !
 ! A75   A(20,23,49)           110.7277         estimate D2E/DX2                !
 ! A76   A(47,23,48)           109.0649         estimate D2E/DX2                !
 ! A77   A(47,23,49)           109.9098         estimate D2E/DX2                !
 ! A78   A(48,23,49)           106.7627         estimate D2E/DX2                !
 ! A79   A(20,24,50)           108.6043         estimate D2E/DX2                !
 ! A80   A(20,24,51)           111.4422         estimate D2E/DX2                !
 ! A81   A(20,24,52)           113.0203         estimate D2E/DX2                !
 ! A82   A(50,24,51)           107.4789         estimate D2E/DX2                !
 ! A83   A(50,24,52)           107.331          estimate D2E/DX2                !
 ! A84   A(51,24,52)           108.7365         estimate D2E/DX2                !
 ! A85   A(20,25,53)           108.229          estimate D2E/DX2                !
 ! A86   A(20,25,54)           113.9634         estimate D2E/DX2                !
 ! A87   A(20,25,55)           111.6349         estimate D2E/DX2                !
 ! A88   A(53,25,54)           107.4363         estimate D2E/DX2                !
 ! A89   A(53,25,55)           106.7513         estimate D2E/DX2                !
 ! A90   A(54,25,55)           108.4989         estimate D2E/DX2                !
 ! A91   A(22,26,62)           108.5015         estimate D2E/DX2                !
 ! A92   A(22,26,63)           112.1613         estimate D2E/DX2                !
 ! A93   A(22,26,64)           112.1415         estimate D2E/DX2                !
 ! A94   A(62,26,63)           108.0615         estimate D2E/DX2                !
 ! A95   A(62,26,64)           107.3336         estimate D2E/DX2                !
 ! A96   A(63,26,64)           108.4517         estimate D2E/DX2                !
 ! A97   A(22,27,56)           112.6195         estimate D2E/DX2                !
 ! A98   A(22,27,57)           108.6366         estimate D2E/DX2                !
 ! A99   A(22,27,58)           112.4922         estimate D2E/DX2                !
 ! A100  A(56,27,57)           107.1543         estimate D2E/DX2                !
 ! A101  A(56,27,58)           108.5005         estimate D2E/DX2                !
 ! A102  A(57,27,58)           107.161          estimate D2E/DX2                !
 ! A103  A(22,28,59)           112.5533         estimate D2E/DX2                !
 ! A104  A(22,28,60)           112.1557         estimate D2E/DX2                !
 ! A105  A(22,28,61)           108.6394         estimate D2E/DX2                !
 ! A106  A(59,28,60)           108.2887         estimate D2E/DX2                !
 ! A107  A(59,28,61)           107.4518         estimate D2E/DX2                !
 ! A108  A(60,28,61)           107.5286         estimate D2E/DX2                !
 ! A109  A(19,32,44)           108.6276         estimate D2E/DX2                !
 ! A110  A(19,32,45)           113.1299         estimate D2E/DX2                !
 ! A111  A(19,32,46)           112.7756         estimate D2E/DX2                !
 ! A112  A(44,32,45)           106.8961         estimate D2E/DX2                !
 ! A113  A(44,32,46)           107.2203         estimate D2E/DX2                !
 ! A114  A(45,32,46)           107.8709         estimate D2E/DX2                !
 ! A115  A(21,35,41)           109.4482         estimate D2E/DX2                !
 ! A116  A(21,35,42)           112.2346         estimate D2E/DX2                !
 ! A117  A(21,35,43)           109.361          estimate D2E/DX2                !
 ! A118  A(41,35,42)           108.5582         estimate D2E/DX2                !
 ! A119  A(41,35,43)           109.6909         estimate D2E/DX2                !
 ! A120  A(42,35,43)           107.5066         estimate D2E/DX2                !
 ! A121  A(18,37,38)           116.3218         estimate D2E/DX2                !
 ! A122  A(18,39,40)           102.5258         estimate D2E/DX2                !
 ! A123  L(29,18,39,1,-1)      190.9772         estimate D2E/DX2                !
 ! A124  L(18,29,30,13,-1)     179.547          estimate D2E/DX2                !
 ! A125  L(29,18,39,1,-2)      187.0032         estimate D2E/DX2                !
 ! A126  L(18,29,30,13,-2)     172.5547         estimate D2E/DX2                !
 ! D1    D(3,1,2,4)             -3.7182         estimate D2E/DX2                !
 ! D2    D(3,1,2,7)            176.0709         estimate D2E/DX2                !
 ! D3    D(18,1,2,4)          -173.0106         estimate D2E/DX2                !
 ! D4    D(18,1,2,7)             6.7785         estimate D2E/DX2                !
 ! D5    D(2,1,3,6)              4.5584         estimate D2E/DX2                !
 ! D6    D(2,1,3,11)          -173.0293         estimate D2E/DX2                !
 ! D7    D(18,1,3,6)           173.6459         estimate D2E/DX2                !
 ! D8    D(18,1,3,11)           -3.9418         estimate D2E/DX2                !
 ! D9    D(2,1,18,16)         -166.7324         estimate D2E/DX2                !
 ! D10   D(2,1,18,29)          -69.7621         estimate D2E/DX2                !
 ! D11   D(2,1,18,37)           92.5216         estimate D2E/DX2                !
 ! D12   D(2,1,18,39)          103.2347         estimate D2E/DX2                !
 ! D13   D(3,1,18,16)           23.9173         estimate D2E/DX2                !
 ! D14   D(3,1,18,29)          120.8875         estimate D2E/DX2                !
 ! D15   D(3,1,18,37)          -76.8288         estimate D2E/DX2                !
 ! D16   D(3,1,18,39)          -66.1156         estimate D2E/DX2                !
 ! D17   D(1,2,4,5)              0.3677         estimate D2E/DX2                !
 ! D18   D(1,2,4,8)            179.9242         estimate D2E/DX2                !
 ! D19   D(7,2,4,5)           -179.3986         estimate D2E/DX2                !
 ! D20   D(7,2,4,8)              0.1579         estimate D2E/DX2                !
 ! D21   D(1,2,7,12)           -41.2138         estimate D2E/DX2                !
 ! D22   D(1,2,7,13)          -166.3043         estimate D2E/DX2                !
 ! D23   D(1,2,7,14)            76.2984         estimate D2E/DX2                !
 ! D24   D(4,2,7,12)           138.5674         estimate D2E/DX2                !
 ! D25   D(4,2,7,13)            13.4769         estimate D2E/DX2                !
 ! D26   D(4,2,7,14)          -103.9204         estimate D2E/DX2                !
 ! D27   D(1,3,6,5)             -2.0762         estimate D2E/DX2                !
 ! D28   D(1,3,6,10)           178.9583         estimate D2E/DX2                !
 ! D29   D(11,3,6,5)           175.3303         estimate D2E/DX2                !
 ! D30   D(11,3,6,10)           -3.6353         estimate D2E/DX2                !
 ! D31   D(1,3,11,15)           84.8441         estimate D2E/DX2                !
 ! D32   D(1,3,11,16)          -25.078          estimate D2E/DX2                !
 ! D33   D(1,3,11,17)         -155.7969         estimate D2E/DX2                !
 ! D34   D(6,3,11,15)          -92.66           estimate D2E/DX2                !
 ! D35   D(6,3,11,16)          157.4179         estimate D2E/DX2                !
 ! D36   D(6,3,11,17)           26.699          estimate D2E/DX2                !
 ! D37   D(2,4,5,6)              2.0464         estimate D2E/DX2                !
 ! D38   D(2,4,5,9)           -179.4861         estimate D2E/DX2                !
 ! D39   D(8,4,5,6)           -177.5033         estimate D2E/DX2                !
 ! D40   D(8,4,5,9)              0.9643         estimate D2E/DX2                !
 ! D41   D(4,5,6,3)             -1.2124         estimate D2E/DX2                !
 ! D42   D(4,5,6,10)           177.7374         estimate D2E/DX2                !
 ! D43   D(9,5,6,3)           -179.6811         estimate D2E/DX2                !
 ! D44   D(9,5,6,10)            -0.7314         estimate D2E/DX2                !
 ! D45   D(2,7,12,19)          -67.7453         estimate D2E/DX2                !
 ! D46   D(2,7,12,21)          167.4213         estimate D2E/DX2                !
 ! D47   D(13,7,12,19)          56.3245         estimate D2E/DX2                !
 ! D48   D(13,7,12,21)         -68.5089         estimate D2E/DX2                !
 ! D49   D(14,7,12,19)         173.99           estimate D2E/DX2                !
 ! D50   D(14,7,12,21)          49.1566         estimate D2E/DX2                !
 ! D51   D(3,11,16,18)          36.3966         estimate D2E/DX2                !
 ! D52   D(3,11,16,20)         162.6042         estimate D2E/DX2                !
 ! D53   D(3,11,16,22)         -83.1844         estimate D2E/DX2                !
 ! D54   D(15,11,16,18)        -76.5533         estimate D2E/DX2                !
 ! D55   D(15,11,16,20)         49.6543         estimate D2E/DX2                !
 ! D56   D(15,11,16,22)        163.8657         estimate D2E/DX2                !
 ! D57   D(17,11,16,18)        165.3406         estimate D2E/DX2                !
 ! D58   D(17,11,16,20)        -68.4518         estimate D2E/DX2                !
 ! D59   D(17,11,16,22)         45.7596         estimate D2E/DX2                !
 ! D60   D(7,12,19,31)          58.1351         estimate D2E/DX2                !
 ! D61   D(7,12,19,32)         -66.389          estimate D2E/DX2                !
 ! D62   D(7,12,19,33)         168.5259         estimate D2E/DX2                !
 ! D63   D(21,12,19,31)       -179.2967         estimate D2E/DX2                !
 ! D64   D(21,12,19,32)         56.1792         estimate D2E/DX2                !
 ! D65   D(21,12,19,33)        -68.9059         estimate D2E/DX2                !
 ! D66   D(7,12,21,34)         -61.1141         estimate D2E/DX2                !
 ! D67   D(7,12,21,35)         178.3096         estimate D2E/DX2                !
 ! D68   D(7,12,21,36)          53.8318         estimate D2E/DX2                !
 ! D69   D(19,12,21,34)        174.9632         estimate D2E/DX2                !
 ! D70   D(19,12,21,35)         54.387          estimate D2E/DX2                !
 ! D71   D(19,12,21,36)        -70.0909         estimate D2E/DX2                !
 ! D72   D(11,16,18,1)         -28.6538         estimate D2E/DX2                !
 ! D73   D(11,16,18,29)       -128.839          estimate D2E/DX2                !
 ! D74   D(11,16,18,37)        124.5936         estimate D2E/DX2                !
 ! D75   D(11,16,18,39)         61.3476         estimate D2E/DX2                !
 ! D76   D(20,16,18,1)        -137.5671         estimate D2E/DX2                !
 ! D77   D(20,16,18,29)        122.2476         estimate D2E/DX2                !
 ! D78   D(20,16,18,37)         15.6803         estimate D2E/DX2                !
 ! D79   D(20,16,18,39)        -47.5657         estimate D2E/DX2                !
 ! D80   D(22,16,18,1)          79.9496         estimate D2E/DX2                !
 ! D81   D(22,16,18,29)        -20.2357         estimate D2E/DX2                !
 ! D82   D(22,16,18,37)       -126.803          estimate D2E/DX2                !
 ! D83   D(22,16,18,39)        169.951          estimate D2E/DX2                !
 ! D84   D(11,16,20,23)        -81.8195         estimate D2E/DX2                !
 ! D85   D(11,16,20,24)        161.2311         estimate D2E/DX2                !
 ! D86   D(11,16,20,25)         37.6925         estimate D2E/DX2                !
 ! D87   D(18,16,20,23)         23.2199         estimate D2E/DX2                !
 ! D88   D(18,16,20,24)        -93.7296         estimate D2E/DX2                !
 ! D89   D(18,16,20,25)        142.7319         estimate D2E/DX2                !
 ! D90   D(22,16,20,23)        168.0904         estimate D2E/DX2                !
 ! D91   D(22,16,20,24)         51.1409         estimate D2E/DX2                !
 ! D92   D(22,16,20,25)        -72.3977         estimate D2E/DX2                !
 ! D93   D(11,16,22,26)         53.7271         estimate D2E/DX2                !
 ! D94   D(11,16,22,27)        -65.3127         estimate D2E/DX2                !
 ! D95   D(11,16,22,28)        171.7693         estimate D2E/DX2                !
 ! D96   D(18,16,22,26)        -49.6242         estimate D2E/DX2                !
 ! D97   D(18,16,22,27)       -168.664          estimate D2E/DX2                !
 ! D98   D(18,16,22,28)         68.418          estimate D2E/DX2                !
 ! D99   D(20,16,22,26)        162.9155         estimate D2E/DX2                !
 ! D100  D(20,16,22,27)         43.8757         estimate D2E/DX2                !
 ! D101  D(20,16,22,28)        -79.0423         estimate D2E/DX2                !
 ! D102  D(1,18,37,38)        -177.6739         estimate D2E/DX2                !
 ! D103  D(16,18,37,38)         85.7378         estimate D2E/DX2                !
 ! D104  D(29,18,37,38)        -15.6494         estimate D2E/DX2                !
 ! D105  D(39,18,37,38)        170.3641         estimate D2E/DX2                !
 ! D106  D(1,18,39,40)        -179.3264         estimate D2E/DX2                !
 ! D107  D(16,18,39,40)         97.3952         estimate D2E/DX2                !
 ! D108  D(37,18,39,40)         -4.6782         estimate D2E/DX2                !
 ! D109  D(12,19,32,44)        179.391          estimate D2E/DX2                !
 ! D110  D(12,19,32,45)         60.869          estimate D2E/DX2                !
 ! D111  D(12,19,32,46)        -61.9004         estimate D2E/DX2                !
 ! D112  D(31,19,32,44)         57.1078         estimate D2E/DX2                !
 ! D113  D(31,19,32,45)        -61.4142         estimate D2E/DX2                !
 ! D114  D(31,19,32,46)        175.8164         estimate D2E/DX2                !
 ! D115  D(33,19,32,44)        -58.1384         estimate D2E/DX2                !
 ! D116  D(33,19,32,45)       -176.6604         estimate D2E/DX2                !
 ! D117  D(33,19,32,46)         60.5702         estimate D2E/DX2                !
 ! D118  D(16,20,23,47)        179.5139         estimate D2E/DX2                !
 ! D119  D(16,20,23,48)         59.1785         estimate D2E/DX2                !
 ! D120  D(16,20,23,49)        -60.0719         estimate D2E/DX2                !
 ! D121  D(24,20,23,47)        -62.3398         estimate D2E/DX2                !
 ! D122  D(24,20,23,48)        177.3247         estimate D2E/DX2                !
 ! D123  D(24,20,23,49)         58.0744         estimate D2E/DX2                !
 ! D124  D(25,20,23,47)         56.924          estimate D2E/DX2                !
 ! D125  D(25,20,23,48)        -63.4114         estimate D2E/DX2                !
 ! D126  D(25,20,23,49)        177.3382         estimate D2E/DX2                !
 ! D127  D(16,20,24,50)        168.7864         estimate D2E/DX2                !
 ! D128  D(16,20,24,51)         50.5776         estimate D2E/DX2                !
 ! D129  D(16,20,24,52)        -72.2312         estimate D2E/DX2                !
 ! D130  D(23,20,24,50)         51.8947         estimate D2E/DX2                !
 ! D131  D(23,20,24,51)        -66.3142         estimate D2E/DX2                !
 ! D132  D(23,20,24,52)        170.877          estimate D2E/DX2                !
 ! D133  D(25,20,24,50)        -66.0309         estimate D2E/DX2                !
 ! D134  D(25,20,24,51)        175.7602         estimate D2E/DX2                !
 ! D135  D(25,20,24,52)         52.9514         estimate D2E/DX2                !
 ! D136  D(16,20,25,53)       -179.9475         estimate D2E/DX2                !
 ! D137  D(16,20,25,54)         60.6055         estimate D2E/DX2                !
 ! D138  D(16,20,25,55)        -62.7491         estimate D2E/DX2                !
 ! D139  D(23,20,25,53)        -60.7492         estimate D2E/DX2                !
 ! D140  D(23,20,25,54)        179.8038         estimate D2E/DX2                !
 ! D141  D(23,20,25,55)         56.4492         estimate D2E/DX2                !
 ! D142  D(24,20,25,53)         56.8973         estimate D2E/DX2                !
 ! D143  D(24,20,25,54)        -62.5497         estimate D2E/DX2                !
 ! D144  D(24,20,25,55)        174.0957         estimate D2E/DX2                !
 ! D145  D(12,21,35,41)         45.726          estimate D2E/DX2                !
 ! D146  D(12,21,35,42)        -74.8703         estimate D2E/DX2                !
 ! D147  D(12,21,35,43)        165.9134         estimate D2E/DX2                !
 ! D148  D(34,21,35,41)        -72.8983         estimate D2E/DX2                !
 ! D149  D(34,21,35,42)        166.5054         estimate D2E/DX2                !
 ! D150  D(34,21,35,43)         47.2892         estimate D2E/DX2                !
 ! D151  D(36,21,35,41)        169.5257         estimate D2E/DX2                !
 ! D152  D(36,21,35,42)         48.9294         estimate D2E/DX2                !
 ! D153  D(36,21,35,43)        -70.2869         estimate D2E/DX2                !
 ! D154  D(16,22,26,62)        173.9753         estimate D2E/DX2                !
 ! D155  D(16,22,26,63)         54.6802         estimate D2E/DX2                !
 ! D156  D(16,22,26,64)        -67.6429         estimate D2E/DX2                !
 ! D157  D(27,22,26,62)        -63.3814         estimate D2E/DX2                !
 ! D158  D(27,22,26,63)        177.3235         estimate D2E/DX2                !
 ! D159  D(27,22,26,64)         55.0004         estimate D2E/DX2                !
 ! D160  D(28,22,26,62)         54.737          estimate D2E/DX2                !
 ! D161  D(28,22,26,63)        -64.5581         estimate D2E/DX2                !
 ! D162  D(28,22,26,64)        173.1188         estimate D2E/DX2                !
 ! D163  D(16,22,27,56)        -68.6478         estimate D2E/DX2                !
 ! D164  D(16,22,27,57)        172.8154         estimate D2E/DX2                !
 ! D165  D(16,22,27,58)         54.3479         estimate D2E/DX2                !
 ! D166  D(26,22,27,56)        172.3814         estimate D2E/DX2                !
 ! D167  D(26,22,27,57)         53.8446         estimate D2E/DX2                !
 ! D168  D(26,22,27,58)        -64.6229         estimate D2E/DX2                !
 ! D169  D(28,22,27,56)         54.8195         estimate D2E/DX2                !
 ! D170  D(28,22,27,57)        -63.7173         estimate D2E/DX2                !
 ! D171  D(28,22,27,58)        177.8152         estimate D2E/DX2                !
 ! D172  D(16,22,28,59)         67.5413         estimate D2E/DX2                !
 ! D173  D(16,22,28,60)        -54.8697         estimate D2E/DX2                !
 ! D174  D(16,22,28,61)       -173.5904         estimate D2E/DX2                !
 ! D175  D(26,22,28,59)       -174.9152         estimate D2E/DX2                !
 ! D176  D(26,22,28,60)         62.6738         estimate D2E/DX2                !
 ! D177  D(26,22,28,61)        -56.0469         estimate D2E/DX2                !
 ! D178  D(27,22,28,59)        -57.7876         estimate D2E/DX2                !
 ! D179  D(27,22,28,60)        179.8013         estimate D2E/DX2                !
 ! D180  D(27,22,28,61)         61.0806         estimate D2E/DX2                !
 --------------------------------------------------------------------------------
 Trust Radius=3.00D-01 FncErr=1.00D-07 GrdErr=1.00D-06 EigMax=2.50D+02 EigMin=1.00D-04
 Number of steps in this run=    382 maximum allowed number of steps=    384.
 GradGradGradGradGradGradGradGradGradGradGradGradGradGradGradGradGradGrad

 Symmetry turned off by external request.
 Stoichiometry    C20H37N2O3PRu(3)
 Framework group  C1[X(C20H37N2O3PRu)]
 Deg. of freedom   186
 Full point group                 C1      NOp   1
                          Input orientation:                          
 ---------------------------------------------------------------------
 Center     Atomic      Atomic             Coordinates (Angstroms)
 Number     Number       Type             X           Y           Z
 ---------------------------------------------------------------------
      1          7           0       -0.706109    1.389575   -0.048726
      2          6           0       -1.911209    1.877663    0.303470
      3          6           0        0.191714    2.167237   -0.688225
      4          6           0       -2.240344    3.209527    0.091020
      5          6           0       -1.299181    4.045902   -0.506246
      6          6           0       -0.078581    3.517042   -0.910354
      7          6           0       -2.825244    0.864761    0.921200
      8          1           0       -3.223345    3.579417    0.384196
      9          1           0       -1.526928    5.099303   -0.678074
     10          1           0        0.663518    4.137778   -1.413460
     11          6           0        1.429291    1.483957   -1.174697
     12          7           0       -2.739063   -0.422777    0.212948
     13          1           0       -3.858873    1.251572    0.960693
     14          1           0       -2.499972    0.688447    1.959681
     15          1           0        1.180535    1.051553   -2.160735
     16         15           0        1.793672   -0.049350   -0.170065
     17          1           0        2.269002    2.183987   -1.287022
     18         44           0       -0.393862   -0.636490    0.105440
     19          6           0       -3.291682   -0.320053   -1.153575
     20          6           0        3.011556   -1.001407   -1.286941
     21          6           0       -3.409656   -1.458322    1.024589
     22          6           0        2.716346    0.611737    1.364715
     23          6           0        2.188830   -1.758659   -2.331437
     24          6           0        3.771893   -2.034310   -0.453624
     25          6           0        3.993500   -0.085996   -2.023131
     26          6           0        1.843775    1.703413    1.995509
     27          6           0        4.074688    1.233210    1.037101
     28          6           0        2.907570   -0.508268    2.392065
     29          6           0       -0.376108   -0.851236    1.943048
     30          8           0       -0.442246   -1.108080    3.082486
     31          1           0       -2.719217    0.461894   -1.669647
     32          6           0       -4.786835   -0.059711   -1.252269
     33          1           0       -3.005908   -1.239207   -1.677037
     34          1           0       -2.862364   -1.508444    1.977354
     35          6           0       -3.413254   -2.820954    0.363227
     36          1           0       -4.441146   -1.132932    1.268594
     37          8           0       -0.376361   -2.502168   -0.618240
     38          1           0       -0.127863   -3.202971    0.004905
     39          8           0       -0.592278   -0.815425   -1.841880
     40          1           0       -0.481217   -1.764369   -1.977240
     41          1           0       -2.409348   -3.037558   -0.036237
     42          1           0       -4.138916   -2.881491   -0.461618
     43          1           0       -3.690148   -3.585319    1.104350
     44          1           0       -5.062958    0.004725   -2.315510
     45          1           0       -5.092640    0.889271   -0.784008
     46          1           0       -5.389908   -0.865630   -0.807293
     47          1           0        2.888415   -2.305226   -2.987102
     48          1           0        1.573476   -1.087049   -2.944254
     49          1           0        1.500838   -2.464941   -1.847047
     50          1           0        4.316132   -2.706345   -1.137576
     51          1           0        3.085299   -2.654634    0.142493
     52          1           0        4.513254   -1.581879    0.219377
     53          1           0        4.654812   -0.715826   -2.641871
     54          1           0        4.632528    0.507717   -1.358722
     55          1           0        3.473487    0.597730   -2.709809
     56          1           0        4.810004    0.489247    0.703355
     57          1           0        4.477546    1.701620    1.950748
     58          1           0        4.003607    2.021465    0.272303
     59          1           0        3.596714   -1.286249    2.042686
     60          1           0        1.959140   -0.985849    2.664367
     61          1           0        3.336847   -0.074389    3.310806
     62          1           0        2.309951    2.019891    2.942921
     63          1           0        0.829897    1.346189    2.217751
     64          1           0        1.766414    2.594186    1.354693
 ---------------------------------------------------------------------
 Rotational constants (GHZ):           0.2495568           0.1527225           0.1326482
 General basis read from cards:  (5D, 7F)
 ======================================================================================================
                                       Pseudopotential Parameters
 ======================================================================================================
  Center     Atomic      Valence      Angular      Power
  Number     Number     Electrons     Momentum     of R      Exponent        Coefficient   SO-Coeffient
 ======================================================================================================
    1          7
                                   No pseudopotential on this center.
    2          6
                                   No pseudopotential on this center.
    3          6
                                   No pseudopotential on this center.
    4          6
                                   No pseudopotential on this center.
    5          6
                                   No pseudopotential on this center.
    6          6
                                   No pseudopotential on this center.
    7          6
                                   No pseudopotential on this center.
    8          1
                                   No pseudopotential on this center.
    9          1
                                   No pseudopotential on this center.
   10          1
                                   No pseudopotential on this center.
   11          6
                                   No pseudopotential on this center.
   12          7
                                   No pseudopotential on this center.
   13          1
                                   No pseudopotential on this center.
   14          1
                                   No pseudopotential on this center.
   15          1
                                   No pseudopotential on this center.
   16         15
                                   No pseudopotential on this center.
   17          1
                                   No pseudopotential on this center.
   18         44           16
                                      G and up 
                                                     2        1.0000000        0.00000000    0.00000000
                                      S - G
                                                     2       11.1052690      209.82297100    0.00000000
                                                     2        5.4147450       30.65472600    0.00000000
                                      P - G
                                                     2        9.7712710      146.33618200    0.00000000
                                                     2        5.0739910       24.12787700    0.00000000
                                      D - G
                                                     2        7.6714230       67.51589700    0.00000000
                                                     2        4.1365650        9.87010400    0.00000000
                                      F - G
                                                     2       11.3600000      -28.34061600    0.00000000
                                                     2        5.6800000       -4.94462900    0.00000000
   19          6
                                   No pseudopotential on this center.
   20          6
                                   No pseudopotential on this center.
   21          6
                                   No pseudopotential on this center.
   22          6
                                   No pseudopotential on this center.
   23          6
                                   No pseudopotential on this center.
   24          6
                                   No pseudopotential on this center.
   25          6
                                   No pseudopotential on this center.
   26          6
                                   No pseudopotential on this center.
   27          6
                                   No pseudopotential on this center.
   28          6
                                   No pseudopotential on this center.
   29          6
                                   No pseudopotential on this center.
   30          8
                                   No pseudopotential on this center.
   31          1
                                   No pseudopotential on this center.
   32          6
                                   No pseudopotential on this center.
   33          1
                                   No pseudopotential on this center.
   34          1
                                   No pseudopotential on this center.
   35          6
                                   No pseudopotential on this center.
   36          1
                                   No pseudopotential on this center.
   37          8
                                   No pseudopotential on this center.
   38          1
                                   No pseudopotential on this center.
   39          8
                                   No pseudopotential on this center.
   40          1
                                   No pseudopotential on this center.
   41          1
                                   No pseudopotential on this center.
   42          1
                                   No pseudopotential on this center.
   43          1
                                   No pseudopotential on this center.
   44          1
                                   No pseudopotential on this center.
   45          1
                                   No pseudopotential on this center.
   46          1
                                   No pseudopotential on this center.
   47          1
                                   No pseudopotential on this center.
   48          1
                                   No pseudopotential on this center.
   49          1
                                   No pseudopotential on this center.
   50          1
                                   No pseudopotential on this center.
   51          1
                                   No pseudopotential on this center.
   52          1
                                   No pseudopotential on this center.
   53          1
                                   No pseudopotential on this center.
   54          1
                                   No pseudopotential on this center.
   55          1
                                   No pseudopotential on this center.
   56          1
                                   No pseudopotential on this center.
   57          1
                                   No pseudopotential on this center.
   58          1
                                   No pseudopotential on this center.
   59          1
                                   No pseudopotential on this center.
   60          1
                                   No pseudopotential on this center.
   61          1
                                   No pseudopotential on this center.
   62          1
                                   No pseudopotential on this center.
   63          1
                                   No pseudopotential on this center.
   64          1
                                   No pseudopotential on this center.
 ======================================================================================================
   589 basis functions,  1220 primitive gaussians,   618 cartesian basis functions
   114 alpha electrons      112 beta electrons
       nuclear repulsion energy      3498.8822121323 Hartrees.
 NAtoms=   64 NActive=   64 NUniq=   64 SFac= 1.00D+00 NAtFMM=   60 NAOKFM=T Big=T
 Integral buffers will be    131072 words long.
 Raffenetti 2 integral format.
 Two-electron integral symmetry is turned off.
 Nuclear repulsion after empirical dispersion term =     3498.7855417934 Hartrees.
 One-electron integrals computed using PRISM.
   1 Symmetry operations used in ECPInt.
 ECPInt:  NShTT=   40186 NPrTT=  280000 LenC2=   37309 LenP2D=  142295.
 LDataN:  DoStor=T MaxTD1= 6 Len=  172
 Number of processors reduced to  16 by ecpmxn.
 NBasis=   589 RedAO= T EigKep=  4.39D-04  NBF=   589
 NBsUse=   589 1.00D-06 EigRej= -1.00D+00 NBFU=   589
 Defaulting to unpruned grid for atomic number  44.
 ExpMin= 1.60D-02 ExpMax= 9.48D+04 ExpMxC= 3.24D+03 IAcc=3 IRadAn=         5 AccDes= 0.00D+00
 Harris functional with IExCor= 1009 and IRadAn=       5 diagonalized for initial guess.
 HarFok:  IExCor= 1009 AccDes= 0.00D+00 IRadAn=         5 IDoV= 1 UseB2=F ITyADJ=14
 ICtDFT=  3500011 ScaDFX=  1.000000  1.000000  1.000000  1.000000
 Defaulting to unpruned grid for atomic number  44.
 FoFCou: FMM=F IPFlag=           0 FMFlag=      100000 FMFlg1=        2001
         NFxFlg=           0 DoJE=T BraDBF=F KetDBF=T FulRan=T
         wScrn=  0.000000 ICntrl=       500 IOpCl=  0 I1Cent=   200000004 NGrid=           0
         NMat0=    1 NMatS0=      1 NMatT0=    0 NMatD0=    1 NMtDS0=    0 NMtDT0=    0
 Symmetry not used in FoFCou.
 Initial guess <Sx>= 0.0000 <Sy>= 0.0000 <Sz>= 1.0000 <S**2>= 2.0000 S= 1.0000
 Requested convergence on RMS density matrix=1.00D-08 within 128 cycles.
 Requested convergence on MAX density matrix=1.00D-06.
 Requested convergence on             energy=1.00D-06.
 No special actions if energy rises.
 Defaulting to unpruned grid for atomic number  44.
 Defaulting to unpruned grid for atomic number  44.
 Defaulting to unpruned grid for atomic number  44.
 Defaulting to unpruned grid for atomic number  44.
 Defaulting to unpruned grid for atomic number  44.
 Defaulting to unpruned grid for atomic number  44.
 Defaulting to unpruned grid for atomic number  44.
 Defaulting to unpruned grid for atomic number  44.
 Defaulting to unpruned grid for atomic number  44.
 Defaulting to unpruned grid for atomic number  44.
 Defaulting to unpruned grid for atomic number  44.
 Defaulting to unpruned grid for atomic number  44.
 Defaulting to unpruned grid for atomic number  44.
 Defaulting to unpruned grid for atomic number  44.
 Defaulting to unpruned grid for atomic number  44.
 Defaulting to unpruned grid for atomic number  44.
 Defaulting to unpruned grid for atomic number  44.
 Defaulting to unpruned grid for atomic number  44.
 Defaulting to unpruned grid for atomic number  44.
 Defaulting to unpruned grid for atomic number  44.
 EnCoef did   100 forward-backward iterations
 Rare condition: small coef for last iteration:  0.000D+00
 Rare condition: small coef for last iteration:  0.000D+00
 Rare condition: small coef for last iteration:  0.000D+00
 Restarting incremental Fock formation.
 Rare condition: small coef for last iteration:  0.000D+00
 Rare condition: small coef for last iteration:  0.000D+00
 Rare condition: small coef for last iteration:  0.000D+00
 Restarting incremental Fock formation.
 Restarting incremental Fock formation.
 SCF Done:  E(UPBE1PBE) =  -1554.54608100     A.U. after   62 cycles
            NFock= 62  Conv=0.18D-08     -V/T= 2.0462
 <Sx>= 0.0000 <Sy>= 0.0000 <Sz>= 1.0000 <S**2>= 2.0218 S= 1.0073
 <L.S>= 0.000000000000E+00
 Annihilation of the first spin contaminant:
 S**2 before annihilation     2.0218,   after     2.0003

 **********************************************************************

            Population analysis using the SCF density.

 **********************************************************************

 Alpha  occ. eigenvalues --  -77.24072 -19.24426 -19.16396 -19.10545 -14.44291
 Alpha  occ. eigenvalues --  -14.41915 -10.30427 -10.29989 -10.29971 -10.27586
 Alpha  occ. eigenvalues --  -10.27339 -10.26313 -10.26238 -10.25576 -10.25540
 Alpha  occ. eigenvalues --  -10.25477 -10.25088 -10.24124 -10.22937 -10.22538
 Alpha  occ. eigenvalues --  -10.22505 -10.22454 -10.22290 -10.21862 -10.20893
 Alpha  occ. eigenvalues --  -10.20184  -6.62256  -4.75855  -4.75778  -4.75570
 Alpha  occ. eigenvalues --   -3.07018  -1.91509  -1.90895  -1.89008  -1.10681
 Alpha  occ. eigenvalues --   -1.01562  -0.96672  -0.95943  -0.88687  -0.85695
 Alpha  occ. eigenvalues --   -0.85165  -0.84094  -0.82990  -0.77689  -0.77407
 Alpha  occ. eigenvalues --   -0.74886  -0.71210  -0.71082  -0.70703  -0.70081
 Alpha  occ. eigenvalues --   -0.69088  -0.66836  -0.66295  -0.63850  -0.62644
 Alpha  occ. eigenvalues --   -0.57634  -0.56303  -0.55279  -0.54572  -0.53948
 Alpha  occ. eigenvalues --   -0.52431  -0.51223  -0.50675  -0.49101  -0.48345
 Alpha  occ. eigenvalues --   -0.47500  -0.47224  -0.46422  -0.45972  -0.45752
 Alpha  occ. eigenvalues --   -0.45033  -0.44977  -0.44694  -0.44148  -0.43794
 Alpha  occ. eigenvalues --   -0.43534  -0.42604  -0.42276  -0.42027  -0.41821
 Alpha  occ. eigenvalues --   -0.40900  -0.40667  -0.39907  -0.39572  -0.39197
 Alpha  occ. eigenvalues --   -0.38720  -0.38460  -0.38400  -0.38200  -0.37231
 Alpha  occ. eigenvalues --   -0.36785  -0.36500  -0.36189  -0.35777  -0.35366
 Alpha  occ. eigenvalues --   -0.34566  -0.34065  -0.33930  -0.33658  -0.33501
 Alpha  occ. eigenvalues --   -0.33173  -0.32694  -0.32575  -0.31995  -0.30159
 Alpha  occ. eigenvalues --   -0.29436  -0.28288  -0.27480  -0.26864  -0.24868
 Alpha  occ. eigenvalues --   -0.22115  -0.21306  -0.19100  -0.09399
 Alpha virt. eigenvalues --   -0.04899  -0.02828   0.00782   0.01863   0.02791
 Alpha virt. eigenvalues --    0.03314   0.03738   0.04554   0.04946   0.06507
 Alpha virt. eigenvalues --    0.07254   0.08153   0.08399   0.08829   0.09114
 Alpha virt. eigenvalues --    0.09925   0.10200   0.10621   0.11112   0.11781
 Alpha virt. eigenvalues --    0.12151   0.12251   0.12682   0.12994   0.13254
 Alpha virt. eigenvalues --    0.13834   0.14087   0.14578   0.14819   0.15246
 Alpha virt. eigenvalues --    0.15480   0.15713   0.16211   0.16544   0.17414
 Alpha virt. eigenvalues --    0.17649   0.18016   0.18289   0.18695   0.18801
 Alpha virt. eigenvalues --    0.19491   0.19698   0.20053   0.20537   0.20632
 Alpha virt. eigenvalues --    0.21191   0.21290   0.21478   0.21700   0.22180
 Alpha virt. eigenvalues --    0.22365   0.22753   0.22826   0.23438   0.23664
 Alpha virt. eigenvalues --    0.24403   0.24804   0.25574   0.25761   0.26001
 Alpha virt. eigenvalues --    0.26939   0.27167   0.27399   0.28225   0.28815
 Alpha virt. eigenvalues --    0.29244   0.29860   0.31186   0.31564   0.32099
 Alpha virt. eigenvalues --    0.33140   0.34548   0.35147   0.35361   0.37176
 Alpha virt. eigenvalues --    0.37945   0.38384   0.40021   0.41445   0.42342
 Alpha virt. eigenvalues --    0.42569   0.43090   0.43850   0.44358   0.44839
 Alpha virt. eigenvalues --    0.45108   0.46496   0.46988   0.47299   0.48074
 Alpha virt. eigenvalues --    0.48693   0.49460   0.49890   0.50392   0.50698
 Alpha virt. eigenvalues --    0.51287   0.52247   0.52506   0.53597   0.54081
 Alpha virt. eigenvalues --    0.54197   0.54916   0.55334   0.55475   0.56412
 Alpha virt. eigenvalues --    0.57618   0.57841   0.58495   0.58801   0.59475
 Alpha virt. eigenvalues --    0.60085   0.60773   0.61114   0.61310   0.61809
 Alpha virt. eigenvalues --    0.61991   0.62669   0.63552   0.63657   0.64025
 Alpha virt. eigenvalues --    0.64249   0.64410   0.64777   0.65126   0.65470
 Alpha virt. eigenvalues --    0.65553   0.65680   0.66072   0.66374   0.66912
 Alpha virt. eigenvalues --    0.67010   0.67420   0.67615   0.67943   0.68392
 Alpha virt. eigenvalues --    0.68956   0.69044   0.69345   0.69803   0.69926
 Alpha virt. eigenvalues --    0.70517   0.70821   0.71343   0.71810   0.72266
 Alpha virt. eigenvalues --    0.72352   0.73178   0.73256   0.73484   0.74094
 Alpha virt. eigenvalues --    0.74940   0.75186   0.75466   0.75985   0.76416
 Alpha virt. eigenvalues --    0.76746   0.77345   0.77763   0.77976   0.78769
 Alpha virt. eigenvalues --    0.78923   0.79071   0.80089   0.80310   0.80551
 Alpha virt. eigenvalues --    0.81450   0.82108   0.83123   0.83144   0.84103
 Alpha virt. eigenvalues --    0.84686   0.85526   0.85804   0.86337   0.86776
 Alpha virt. eigenvalues --    0.87318   0.88072   0.88501   0.89953   0.90354
 Alpha virt. eigenvalues --    0.90686   0.91343   0.91742   0.91883   0.92391
 Alpha virt. eigenvalues --    0.92832   0.93892   0.94758   0.95554   0.96771
 Alpha virt. eigenvalues --    0.97020   0.98196   0.98389   0.98873   0.99203
 Alpha virt. eigenvalues --    1.00257   1.01046   1.01806   1.02708   1.03199
 Alpha virt. eigenvalues --    1.03680   1.04461   1.05588   1.05865   1.07985
 Alpha virt. eigenvalues --    1.08690   1.10137   1.11291   1.11773   1.12688
 Alpha virt. eigenvalues --    1.13551   1.15501   1.16367   1.16643   1.17515
 Alpha virt. eigenvalues --    1.18367   1.19214   1.20510   1.21433   1.22075
 Alpha virt. eigenvalues --    1.23050   1.24037   1.25276   1.26163   1.26947
 Alpha virt. eigenvalues --    1.27059   1.27563   1.28452   1.29748   1.30617
 Alpha virt. eigenvalues --    1.31193   1.32049   1.32986   1.33135   1.34475
 Alpha virt. eigenvalues --    1.34891   1.35463   1.35746   1.36297   1.37154
 Alpha virt. eigenvalues --    1.37881   1.39054   1.39307   1.40153   1.40388
 Alpha virt. eigenvalues --    1.41175   1.42055   1.42486   1.43367   1.43546
 Alpha virt. eigenvalues --    1.43816   1.44432   1.44908   1.45214   1.45613
 Alpha virt. eigenvalues --    1.45741   1.46088   1.47160   1.47612   1.48341
 Alpha virt. eigenvalues --    1.48564   1.49302   1.49602   1.51370   1.51864
 Alpha virt. eigenvalues --    1.52826   1.52944   1.53452   1.54063   1.54533
 Alpha virt. eigenvalues --    1.54732   1.55324   1.56111   1.56981   1.57634
 Alpha virt. eigenvalues --    1.58432   1.59443   1.60088   1.60751   1.61618
 Alpha virt. eigenvalues --    1.61698   1.62404   1.62554   1.63346   1.63560
 Alpha virt. eigenvalues --    1.64039   1.65253   1.65703   1.66367   1.66590
 Alpha virt. eigenvalues --    1.66937   1.67479   1.68353   1.68573   1.68661
 Alpha virt. eigenvalues --    1.69324   1.69511   1.70136   1.70607   1.71148
 Alpha virt. eigenvalues --    1.71478   1.71956   1.72443   1.72822   1.73222
 Alpha virt. eigenvalues --    1.73779   1.73915   1.74596   1.75012   1.75715
 Alpha virt. eigenvalues --    1.75999   1.76362   1.76551   1.77088   1.77248
 Alpha virt. eigenvalues --    1.77827   1.78360   1.78749   1.79209   1.80112
 Alpha virt. eigenvalues --    1.80525   1.81366   1.81652   1.82463   1.82718
 Alpha virt. eigenvalues --    1.83489   1.83777   1.84530   1.84695   1.85070
 Alpha virt. eigenvalues --    1.85663   1.86332   1.87232   1.88048   1.88786
 Alpha virt. eigenvalues --    1.88996   1.89846   1.90152   1.90481   1.91109
 Alpha virt. eigenvalues --    1.91955   1.92524   1.92940   1.93698   1.94624
 Alpha virt. eigenvalues --    1.95698   1.96574   1.97358   1.97749   1.99018
 Alpha virt. eigenvalues --    1.99214   1.99746   2.00117   2.00611   2.01291
 Alpha virt. eigenvalues --    2.01792   2.02882   2.03173   2.03982   2.04111
 Alpha virt. eigenvalues --    2.04837   2.06406   2.06564   2.06953   2.07192
 Alpha virt. eigenvalues --    2.07732   2.08589   2.09478   2.09865   2.10648
 Alpha virt. eigenvalues --    2.11284   2.11692   2.12204   2.13284   2.14593
 Alpha virt. eigenvalues --    2.15636   2.16806   2.16985   2.18952   2.19284
 Alpha virt. eigenvalues --    2.20670   2.21304   2.22873   2.23552   2.24761
 Alpha virt. eigenvalues --    2.25552   2.25940   2.26437   2.27205   2.27799
 Alpha virt. eigenvalues --    2.28609   2.28733   2.29975   2.30573   2.31145
 Alpha virt. eigenvalues --    2.32248   2.34007   2.34282   2.38304   2.40057
 Alpha virt. eigenvalues --    2.40674   2.40928   2.41352   2.41741   2.42075
 Alpha virt. eigenvalues --    2.42854   2.43065   2.43987   2.44439   2.45414
 Alpha virt. eigenvalues --    2.46001   2.46642   2.47195   2.47603   2.49076
 Alpha virt. eigenvalues --    2.49513   2.49752   2.49873   2.51178   2.51877
 Alpha virt. eigenvalues --    2.52283   2.52391   2.52579   2.53969   2.54670
 Alpha virt. eigenvalues --    2.54990   2.55876   2.56526   2.57290   2.57385
 Alpha virt. eigenvalues --    2.57543   2.58361   2.59095   2.59559   2.61022
 Alpha virt. eigenvalues --    2.61628   2.62234   2.63853   2.65045   2.66701
 Alpha virt. eigenvalues --    2.67498   2.68651   2.69463   2.69976   2.70799
 Alpha virt. eigenvalues --    2.72079   2.73033   2.73702   2.75203   2.76448
 Alpha virt. eigenvalues --    2.78916   2.79744   2.80073   2.82744   2.83667
 Alpha virt. eigenvalues --    2.85293   2.86788   2.90635   2.92848   2.98282
 Alpha virt. eigenvalues --    3.00212   3.01440   3.07317   3.10059   3.13688
 Alpha virt. eigenvalues --    3.15610   3.23868   3.49412   3.59619   3.86282
 Alpha virt. eigenvalues --    3.89722  34.95585  35.03487  35.06349  46.01200
  Beta  occ. eigenvalues --  -77.23997 -19.24514 -19.15801 -19.10508 -14.44173
  Beta  occ. eigenvalues --  -14.41575 -10.30421 -10.30085 -10.29960 -10.27586
  Beta  occ. eigenvalues --  -10.27336 -10.26308 -10.26236 -10.25514 -10.25491
  Beta  occ. eigenvalues --  -10.25484 -10.25099 -10.24132 -10.22927 -10.22537
  Beta  occ. eigenvalues --  -10.22486 -10.22458 -10.22280 -10.21858 -10.20890
  Beta  occ. eigenvalues --  -10.20184  -6.62150  -4.75767  -4.75719  -4.75405
  Beta  occ. eigenvalues --   -3.01328  -1.86461  -1.83624  -1.82000  -1.10843
  Beta  occ. eigenvalues --   -1.01355  -0.96264  -0.94783  -0.88271  -0.85584
  Beta  occ. eigenvalues --   -0.85094  -0.84013  -0.82900  -0.77648  -0.77363
  Beta  occ. eigenvalues --   -0.74823  -0.71164  -0.70980  -0.70679  -0.70058
  Beta  occ. eigenvalues --   -0.69057  -0.66639  -0.66209  -0.63726  -0.62370
  Beta  occ. eigenvalues --   -0.57493  -0.56175  -0.55403  -0.54428  -0.53828
  Beta  occ. eigenvalues --   -0.52259  -0.51050  -0.50411  -0.49010  -0.48183
  Beta  occ. eigenvalues --   -0.47185  -0.46924  -0.46348  -0.45846  -0.45532
  Beta  occ. eigenvalues --   -0.44905  -0.44770  -0.44528  -0.43879  -0.43573
  Beta  occ. eigenvalues --   -0.43425  -0.42644  -0.42265  -0.41982  -0.41790
  Beta  occ. eigenvalues --   -0.40894  -0.40555  -0.39867  -0.39483  -0.39089
  Beta  occ. eigenvalues --   -0.38491  -0.38402  -0.38189  -0.37707  -0.37169
  Beta  occ. eigenvalues --   -0.36656  -0.36386  -0.35828  -0.35646  -0.34862
  Beta  occ. eigenvalues --   -0.34287  -0.33987  -0.33717  -0.33542  -0.33305
  Beta  occ. eigenvalues --   -0.32857  -0.32277  -0.30569  -0.29845  -0.29260
  Beta  occ. eigenvalues --   -0.28057  -0.27750  -0.25569  -0.25095  -0.23568
  Beta  occ. eigenvalues --   -0.20292  -0.17828
  Beta virt. eigenvalues --   -0.07810  -0.04508  -0.02810   0.00871   0.02096
  Beta virt. eigenvalues --    0.02631   0.03047   0.03868   0.04401   0.04923
  Beta virt. eigenvalues --    0.06350   0.07124   0.07861   0.08247   0.08645
  Beta virt. eigenvalues --    0.09160   0.09588   0.10004   0.10281   0.10778
  Beta virt. eigenvalues --    0.11163   0.11904   0.12273   0.12422   0.12828
  Beta virt. eigenvalues --    0.13079   0.13363   0.13968   0.14203   0.14658
  Beta virt. eigenvalues --    0.14980   0.15324   0.15609   0.15798   0.16269
  Beta virt. eigenvalues --    0.16690   0.17564   0.17716   0.18180   0.18360
  Beta virt. eigenvalues --    0.18797   0.18907   0.19590   0.19788   0.20130
  Beta virt. eigenvalues --    0.20632   0.20692   0.21263   0.21382   0.21595
  Beta virt. eigenvalues --    0.21778   0.22327   0.22495   0.22820   0.22975
  Beta virt. eigenvalues --    0.23503   0.23761   0.24507   0.24930   0.25671
  Beta virt. eigenvalues --    0.25927   0.26130   0.27051   0.27265   0.27479
  Beta virt. eigenvalues --    0.28476   0.29063   0.29384   0.29983   0.31381
  Beta virt. eigenvalues --    0.31757   0.32284   0.33306   0.34681   0.35415
  Beta virt. eigenvalues --    0.35977   0.37326   0.38203   0.38782   0.40423
  Beta virt. eigenvalues --    0.41512   0.42425   0.42655   0.43164   0.44049
  Beta virt. eigenvalues --    0.44437   0.44950   0.45262   0.46591   0.47210
  Beta virt. eigenvalues --    0.47458   0.48362   0.48904   0.49519   0.50053
  Beta virt. eigenvalues --    0.50567   0.50842   0.51443   0.52425   0.52664
  Beta virt. eigenvalues --    0.53716   0.54219   0.54415   0.55066   0.55477
  Beta virt. eigenvalues --    0.55662   0.56476   0.57766   0.57994   0.58617
  Beta virt. eigenvalues --    0.59010   0.59684   0.60182   0.60872   0.61192
  Beta virt. eigenvalues --    0.61542   0.61910   0.62086   0.62792   0.63645
  Beta virt. eigenvalues --    0.63781   0.64114   0.64314   0.64509   0.64880
  Beta virt. eigenvalues --    0.65203   0.65539   0.65623   0.65755   0.66245
  Beta virt. eigenvalues --    0.66543   0.67025   0.67106   0.67529   0.67737
  Beta virt. eigenvalues --    0.68046   0.68452   0.69051   0.69160   0.69517
  Beta virt. eigenvalues --    0.69863   0.70053   0.70610   0.70955   0.71405
  Beta virt. eigenvalues --    0.71900   0.72368   0.72425   0.73299   0.73365
  Beta virt. eigenvalues --    0.73535   0.74327   0.75043   0.75272   0.75539
  Beta virt. eigenvalues --    0.76061   0.76485   0.76865   0.77459   0.77998
  Beta virt. eigenvalues --    0.78243   0.78905   0.79116   0.79209   0.80229
  Beta virt. eigenvalues --    0.80411   0.80736   0.81541   0.82164   0.83204
  Beta virt. eigenvalues --    0.83608   0.84351   0.84759   0.85653   0.85945
  Beta virt. eigenvalues --    0.86628   0.86895   0.87517   0.88236   0.88692
  Beta virt. eigenvalues --    0.90044   0.90458   0.90833   0.91484   0.91904
  Beta virt. eigenvalues --    0.92166   0.92530   0.93027   0.94003   0.94890
  Beta virt. eigenvalues --    0.95710   0.96865   0.97116   0.98335   0.98547
  Beta virt. eigenvalues --    0.98969   0.99303   1.00429   1.01236   1.02027
  Beta virt. eigenvalues --    1.02863   1.03404   1.03845   1.04620   1.05742
  Beta virt. eigenvalues --    1.05986   1.08225   1.08924   1.10371   1.11345
  Beta virt. eigenvalues --    1.11848   1.12859   1.13837   1.15580   1.16459
  Beta virt. eigenvalues --    1.16800   1.17635   1.18592   1.19313   1.20731
  Beta virt. eigenvalues --    1.21523   1.22322   1.23157   1.24204   1.25386
  Beta virt. eigenvalues --    1.26304   1.27084   1.27205   1.27774   1.28564
  Beta virt. eigenvalues --    1.29847   1.30667   1.31330   1.32156   1.33079
  Beta virt. eigenvalues --    1.33272   1.34619   1.34968   1.35574   1.35847
  Beta virt. eigenvalues --    1.36465   1.37252   1.38028   1.39173   1.39399
  Beta virt. eigenvalues --    1.40230   1.40463   1.41272   1.42126   1.42578
  Beta virt. eigenvalues --    1.43431   1.43586   1.43905   1.44508   1.44975
  Beta virt. eigenvalues --    1.45325   1.45710   1.45782   1.46158   1.47213
  Beta virt. eigenvalues --    1.47685   1.48384   1.48703   1.49404   1.49728
  Beta virt. eigenvalues --    1.51495   1.51931   1.52897   1.53023   1.53554
  Beta virt. eigenvalues --    1.54204   1.54649   1.54903   1.55465   1.56196
  Beta virt. eigenvalues --    1.57084   1.57735   1.58625   1.59532   1.60151
  Beta virt. eigenvalues --    1.60794   1.61691   1.61798   1.62474   1.62635
  Beta virt. eigenvalues --    1.63413   1.63620   1.64124   1.65299   1.65762
  Beta virt. eigenvalues --    1.66443   1.66622   1.66993   1.67546   1.68449
  Beta virt. eigenvalues --    1.68642   1.68724   1.69417   1.69556   1.70190
  Beta virt. eigenvalues --    1.70712   1.71201   1.71537   1.72013   1.72488
  Beta virt. eigenvalues --    1.72886   1.73280   1.73857   1.73979   1.74677
  Beta virt. eigenvalues --    1.75071   1.75780   1.76052   1.76428   1.76628
  Beta virt. eigenvalues --    1.77157   1.77349   1.77930   1.78450   1.78810
  Beta virt. eigenvalues --    1.79279   1.80182   1.80603   1.81436   1.81706
  Beta virt. eigenvalues --    1.82533   1.82785   1.83539   1.83859   1.84596
  Beta virt. eigenvalues --    1.84772   1.85129   1.85775   1.86394   1.87280
  Beta virt. eigenvalues --    1.88092   1.88865   1.89063   1.89910   1.90246
  Beta virt. eigenvalues --    1.90542   1.91154   1.92027   1.92597   1.93025
  Beta virt. eigenvalues --    1.93767   1.94718   1.95796   1.96645   1.97462
  Beta virt. eigenvalues --    1.97813   1.99118   1.99322   1.99794   2.00192
  Beta virt. eigenvalues --    2.00684   2.01363   2.01921   2.02993   2.03296
  Beta virt. eigenvalues --    2.04072   2.04172   2.04901   2.06525   2.06679
  Beta virt. eigenvalues --    2.07034   2.07290   2.07816   2.08658   2.09543
  Beta virt. eigenvalues --    2.09937   2.10731   2.11399   2.11751   2.12302
  Beta virt. eigenvalues --    2.13368   2.14716   2.15784   2.16895   2.17069
  Beta virt. eigenvalues --    2.19136   2.19374   2.20723   2.21374   2.22947
  Beta virt. eigenvalues --    2.23635   2.24879   2.25605   2.26030   2.26516
  Beta virt. eigenvalues --    2.27288   2.27856   2.28673   2.28834   2.30035
  Beta virt. eigenvalues --    2.30629   2.31268   2.32306   2.34104   2.34394
  Beta virt. eigenvalues --    2.38524   2.40104   2.40727   2.41043   2.41466
  Beta virt. eigenvalues --    2.41831   2.42169   2.42943   2.43125   2.44052
  Beta virt. eigenvalues --    2.44614   2.45474   2.46089   2.46693   2.47272
  Beta virt. eigenvalues --    2.47655   2.49180   2.49555   2.49870   2.49944
  Beta virt. eigenvalues --    2.51248   2.51984   2.52327   2.52433   2.52683
  Beta virt. eigenvalues --    2.54018   2.54734   2.55038   2.55929   2.56580
  Beta virt. eigenvalues --    2.57350   2.57426   2.57580   2.58400   2.59147
  Beta virt. eigenvalues --    2.59609   2.61070   2.61714   2.62321   2.64023
  Beta virt. eigenvalues --    2.64923   2.66725   2.67662   2.68711   2.69556
  Beta virt. eigenvalues --    2.70141   2.70939   2.72247   2.73302   2.74120
  Beta virt. eigenvalues --    2.75406   2.76749   2.79051   2.80444   2.80787
  Beta virt. eigenvalues --    2.82921   2.83916   2.85541   2.87742   2.91178
  Beta virt. eigenvalues --    2.92996   2.98987   3.00426   3.01821   3.07766
  Beta virt. eigenvalues --    3.10638   3.13676   3.15578   3.24134   3.49467
  Beta virt. eigenvalues --    3.59526   3.86755   3.89881  34.97282  35.05306
  Beta virt. eigenvalues --   35.08141  46.02674
          Condensed to atoms (all electrons):
          Atomic-Atomic Spin Densities.
 Mulliken charges and spin densities:
               1          2
     1  N   -0.349185   0.030092
     2  C    0.044191   0.006277
     3  C    0.088124   0.000771
     4  C   -0.043958   0.000563
     5  C    0.084866   0.000528
     6  C   -0.044266   0.000295
     7  C    0.118512   0.001646
     8  H    0.004347   0.004111
     9  H    0.020032   0.000134
    10  H    0.005022   0.003295
    11  C   -0.096198  -0.004899
    12  N   -0.366217   0.093988
    13  H    0.032187   0.000148
    14  H    0.098570   0.000609
    15  H    0.143840  -0.000233
    16  P    0.180171   0.182436
    17  H    0.055473   0.001291
    18  Ru   0.151650   1.503369
    19  C   -0.012986  -0.003014
    20  C   -0.477481   0.031677
    21  C   -0.007223  -0.002715
    22  C   -0.457549   0.003873
    23  C    0.004591  -0.000950
    24  C   -0.002319  -0.000765
    25  C    0.014146   0.004523
    26  C   -0.009997  -0.001840
    27  C    0.016529   0.001966
    28  C   -0.005632   0.001452
    29  C   -0.043076  -0.066953
    30  O   -0.145503  -0.028381
    31  H    0.110244   0.001229
    32  C   -0.063104   0.003554
    33  H    0.107555   0.001088
    34  H    0.072914   0.001804
    35  C   -0.101077   0.002023
    36  H    0.026853   0.007913
    37  O   -0.400731   0.190913
    38  H    0.154101  -0.000022
    39  O   -0.406641   0.009058
    40  H    0.211480   0.001078
    41  H    0.113483   0.000092
    42  H    0.044364  -0.000355
    43  H    0.045882  -0.000276
    44  H    0.053508   0.001637
    45  H    0.036816  -0.000225
    46  H    0.048249  -0.000173
    47  H    0.022406   0.000816
    48  H    0.075942  -0.000077
    49  H    0.099810   0.000618
    50  H    0.041697   0.000495
    51  H    0.074356   0.002250
    52  H    0.044568   0.000050
    53  H    0.034624   0.008658
    54  H    0.028807  -0.000427
    55  H    0.044190  -0.000400
    56  H    0.049609  -0.000150
    57  H    0.033384   0.005211
    58  H    0.038952  -0.000158
    59  H    0.033719  -0.000275
    60  H    0.093336  -0.000468
    61  H    0.035252   0.000222
    62  H    0.036564   0.000036
    63  H    0.110986   0.000947
    64  H    0.047242   0.000019
 Sum of Mulliken charges =  -0.00000   2.00000
 Mulliken charges and spin densities with hydrogens summed into heavy atoms:
               1          2
     1  N   -0.349185   0.030092
     2  C    0.044191   0.006277
     3  C    0.088124   0.000771
     4  C   -0.039610   0.004674
     5  C    0.104897   0.000662
     6  C   -0.039245   0.003590
     7  C    0.249269   0.002402
    11  C    0.103114  -0.003841
    12  N   -0.366217   0.093988
    16  P    0.180171   0.182436
    18  Ru   0.151650   1.503369
    19  C    0.204814  -0.000697
    20  C   -0.477481   0.031677
    21  C    0.092544   0.007003
    22  C   -0.457549   0.003873
    23  C    0.202750   0.000407
    24  C    0.158303   0.002031
    25  C    0.121767   0.012354
    26  C    0.184796  -0.000839
    27  C    0.138474   0.006869
    28  C    0.156675   0.000930
    29  C   -0.043076  -0.066953
    30  O   -0.145503  -0.028381
    32  C    0.075469   0.004794
    35  C    0.102652   0.001485
    37  O   -0.246631   0.190891
    39  O   -0.195162   0.010136
 Electronic spatial extent (au):  <R**2>=           9736.6958
 Charge=             -0.0000 electrons
 Dipole moment (field-independent basis, Debye):
    X=              0.1636    Y=              4.8322    Z=              0.4239  Tot=              4.8535
 Quadrupole moment (field-independent basis, Debye-Ang):
   XX=           -171.2980   YY=           -176.1947   ZZ=           -200.7051
   XY=             -4.8270   XZ=             -3.8767   YZ=             -2.9859
 Traceless Quadrupole moment (field-independent basis, Debye-Ang):
   XX=             11.4346   YY=              6.5379   ZZ=            -17.9725
   XY=             -4.8270   XZ=             -3.8767   YZ=             -2.9859
 Octapole moment (field-independent basis, Debye-Ang**2):
  XXX=            -55.1612  YYY=             12.1279  ZZZ=            -12.6929  XYY=            -23.2807
  XXY=             -7.6679  XXZ=              5.3749  XZZ=             -0.4525  YZZ=             -1.5911
  YYZ=             -9.5621  XYZ=             -1.2836
 Hexadecapole moment (field-independent basis, Debye-Ang**3):
 XXXX=          -7342.8913 YYYY=          -3299.8271 ZZZZ=          -2402.2463 XXXY=            -25.5558
 XXXZ=             13.6104 YYYX=            -65.6167 YYYZ=           -124.2830 ZZZX=             38.0967
 ZZZY=             13.0067 XXYY=          -1767.5954 XXZZ=          -1590.4712 YYZZ=           -994.7571
 XXYZ=             12.6875 YYXZ=            -17.0406 ZZXY=             19.5333
 N-N= 3.498785541793D+03 E-N=-1.061217775459D+04  KE= 1.485945726176D+03
                          Isotropic Fermi Contact Couplings
        Atom                 a.u.       MegaHertz       Gauss      10(-4) cm-1
     1  N(14)              0.06364      10.28165       3.66875       3.42959
[...]
              Anisotropic Spin Dipole Couplings in Principal Axis System
 ---------------------------------------------------------------------------------

       Atom             a.u.   MegaHertz   Gauss  10(-4) cm-1        Axes

              Baa    -0.0327    -1.263    -0.451    -0.421  0.8535  0.0925 -0.5128
     1 N(14)  Bbb    -0.0322    -1.241    -0.443    -0.414  0.5008  0.1262  0.8563
              Bcc     0.0649     2.504     0.893     0.835 -0.1440  0.9877 -0.0614
 
              Baa    -0.0170    -2.279    -0.813    -0.760  0.6257  0.1311  0.7690
     2 C(13)  Bbb    -0.0023    -0.308    -0.110    -0.103  0.5708  0.5949 -0.5659
              Bcc     0.0193     2.587     0.923     0.863 -0.5317  0.7930  0.2974
 
              Baa    -0.0153    -2.055    -0.733    -0.686  0.5249  0.2014  0.8270
     3 C(13)  Bbb    -0.0034    -0.457    -0.163    -0.153  0.8167 -0.3931 -0.4226
              Bcc     0.0187     2.513     0.897     0.838  0.2400  0.8972 -0.3708
 
              Baa    -0.0035    -0.464    -0.166    -0.155  0.7571  0.2610 -0.5989
     4 C(13)  Bbb    -0.0020    -0.275    -0.098    -0.092  0.5953  0.1022  0.7970
              Bcc     0.0055     0.739     0.264     0.247 -0.2692  0.9599  0.0780
 
              Baa    -0.0071    -0.954    -0.340    -0.318  0.3859  0.1404  0.9118
     5 C(13)  Bbb     0.0002     0.030     0.011     0.010  0.9127  0.0863 -0.3995
              Bcc     0.0069     0.924     0.330     0.308 -0.1348  0.9863 -0.0949
 
              Baa    -0.0037    -0.491    -0.175    -0.164  0.7202 -0.2061 -0.6624
     6 C(13)  Bbb    -0.0014    -0.181    -0.065    -0.060  0.6931  0.1740  0.6995
              Bcc     0.0050     0.672     0.240     0.224  0.0289  0.9629 -0.2682
 
              Baa    -0.0126    -1.696    -0.605    -0.566  0.1143 -0.4012  0.9088
     7 C(13)  Bbb    -0.0045    -0.606    -0.216    -0.202  0.7414  0.6434  0.1907
              Bcc     0.0172     2.302     0.821     0.768  0.6613 -0.6520 -0.3710
 
              Baa    -0.0021    -1.139    -0.406    -0.380 -0.0683 -0.1695  0.9832
     8 H(1)   Bbb    -0.0018    -0.985    -0.351    -0.328  0.8839  0.4468  0.1384
              Bcc     0.0040     2.124     0.758     0.708 -0.4627  0.8784  0.1193
 
              Baa    -0.0013    -0.711    -0.254    -0.237  0.3251  0.1296  0.9368
     9 H(1)   Bbb    -0.0009    -0.463    -0.165    -0.154  0.9349  0.1050 -0.3390
              Bcc     0.0022     1.174     0.419     0.392 -0.1423  0.9860 -0.0870
 
              Baa    -0.0020    -1.081    -0.386    -0.361 -0.2312  0.3309  0.9149
    10 H(1)   Bbb    -0.0018    -0.949    -0.339    -0.317  0.9518 -0.1178  0.2831
              Bcc     0.0038     2.030     0.724     0.677  0.2014  0.9363 -0.2877
 
              Baa    -0.0115    -1.549    -0.553    -0.517  0.6011 -0.3029  0.7395
    11 C(13)  Bbb    -0.0045    -0.609    -0.217    -0.203 -0.3810  0.7048  0.5984
              Bcc     0.0161     2.158     0.770     0.720  0.7025  0.6414 -0.3083
 
              Baa    -0.1348    -5.198    -1.855    -1.734  0.0540 -0.1992  0.9785
    12 N(14)  Bbb    -0.1311    -5.055    -1.804    -1.686  0.3405  0.9248  0.1694
              Bcc     0.2658    10.253     3.658     3.420  0.9387 -0.3241 -0.1178
 
              Baa    -0.0049    -2.594    -0.926    -0.865  0.0134 -0.4441  0.8959
    13 H(1)   Bbb    -0.0033    -1.774    -0.633    -0.592  0.7158  0.6299  0.3015
              Bcc     0.0082     4.369     1.559     1.457  0.6982 -0.6372 -0.3263
 
              Baa    -0.0092    -4.921    -1.756    -1.642 -0.1079  0.7829 -0.6127
    14 H(1)   Bbb    -0.0065    -3.463    -1.236    -1.155  0.8444  0.3975  0.3591
              Bcc     0.0157     8.385     2.992     2.797 -0.5247  0.4786  0.7040
 
              Baa    -0.0089    -4.740    -1.691    -1.581  0.0630  0.7582  0.6489
    15 H(1)   Bbb    -0.0064    -3.389    -1.209    -1.130  0.8961 -0.3293  0.2977
              Bcc     0.0152     8.129     2.901     2.712 -0.4394 -0.5627  0.7002
 
              Baa    -0.1963   -42.439   -15.143   -14.156  0.1518  0.4202  0.8947
    16 P(31)  Bbb    -0.1876   -40.562   -14.474   -13.530  0.8207 -0.5580  0.1228
              Bcc     0.3839    83.001    29.617    27.686  0.5509  0.7156 -0.4295
 
              Baa    -0.0039    -2.105    -0.751    -0.702 -0.0073  0.4767  0.8790
    17 H(1)   Bbb    -0.0026    -1.382    -0.493    -0.461  0.8824 -0.4105  0.2300
              Bcc     0.0065     3.487     1.244     1.163  0.4705  0.7773 -0.4176
 
              Baa    -0.4869    11.931     4.257     3.980  0.0123 -0.2363  0.9716
    18 Ru(99) Bbb     0.1362    -3.336    -1.190    -1.113 -0.0271  0.9712  0.2366
              Bcc     0.3508    -8.595    -3.067    -2.867  0.9996  0.0292 -0.0056
 
              Baa    -0.0095    -1.271    -0.453    -0.424  0.2872  0.9572  0.0346
    19 C(13)  Bbb    -0.0076    -1.015    -0.362    -0.339 -0.4633  0.1072  0.8797
              Bcc     0.0170     2.286     0.816     0.763  0.8383 -0.2687  0.4743
 
              Baa    -0.0180    -2.409    -0.860    -0.804 -0.2235  0.7106 -0.6672
    20 C(13)  Bbb    -0.0145    -1.941    -0.693    -0.647  0.5700  0.6505  0.5019
              Bcc     0.0324     4.350     1.552     1.451  0.7907 -0.2681 -0.5504
 
              Baa    -0.0094    -1.259    -0.449    -0.420  0.3159  0.3553  0.8798
    21 C(13)  Bbb    -0.0075    -1.000    -0.357    -0.333 -0.3380  0.9086 -0.2455
              Bcc     0.0168     2.259     0.806     0.753  0.8865  0.2198 -0.4071
 
              Baa    -0.0158    -2.122    -0.757    -0.708 -0.2880  0.8536 -0.4341
    22 C(13)  Bbb    -0.0147    -1.978    -0.706    -0.660  0.7898 -0.0447 -0.6118
              Bcc     0.0306     4.100     1.463     1.368  0.5416  0.5190  0.6613
 
              Baa    -0.0073    -0.985    -0.352    -0.329 -0.1139  0.8668 -0.4855
    23 C(13)  Bbb    -0.0030    -0.397    -0.142    -0.132  0.6655  0.4294  0.6105
              Bcc     0.0103     1.382     0.493     0.461  0.7377 -0.2536 -0.6257
 
              Baa    -0.0041    -0.546    -0.195    -0.182  0.2067  0.2990  0.9316
    24 C(13)  Bbb    -0.0027    -0.358    -0.128    -0.119  0.2045  0.9180 -0.3399
              Bcc     0.0067     0.904     0.323     0.302  0.9568 -0.2608 -0.1287
 
              Baa    -0.0068    -0.909    -0.324    -0.303 -0.1526  0.8807  0.4485
    25 C(13)  Bbb    -0.0057    -0.766    -0.273    -0.255  0.7309 -0.2050  0.6510
              Bcc     0.0125     1.674     0.597     0.558  0.6653  0.4271 -0.6124
 
              Baa    -0.0048    -0.645    -0.230    -0.215 -0.0481 -0.6377  0.7688
    26 C(13)  Bbb    -0.0032    -0.432    -0.154    -0.144  0.8898 -0.3770 -0.2571
              Bcc     0.0080     1.077     0.384     0.359  0.4538  0.6717  0.5856
 
              Baa    -0.0061    -0.815    -0.291    -0.272 -0.1900  0.3239  0.9268
    27 C(13)  Bbb    -0.0056    -0.757    -0.270    -0.253 -0.4865  0.7889 -0.3754
              Bcc     0.0117     1.572     0.561     0.524  0.8528  0.5222 -0.0077
 
              Baa    -0.0046    -0.616    -0.220    -0.206 -0.2139  0.9749  0.0625
    28 C(13)  Bbb    -0.0041    -0.551    -0.197    -0.184  0.6934  0.1965 -0.6932
              Bcc     0.0087     1.167     0.417     0.389  0.6881  0.1049  0.7180
 
              Baa    -0.0468    -6.281    -2.241    -2.095 -0.4314  0.8820  0.1898
    29 C(13)  Bbb    -0.0417    -5.596    -1.997    -1.867  0.9019  0.4270  0.0658
              Bcc     0.0885    11.876     4.238     3.961  0.0230 -0.1996  0.9796
 
              Baa    -0.0667     4.824     1.721     1.609 -0.5918  0.7750  0.2217
    30 O(17)  Bbb    -0.0501     3.625     1.293     1.209  0.8037  0.5886  0.0878
              Bcc     0.1168    -8.449    -3.015    -2.818  0.0625 -0.2302  0.9711
 
              Baa    -0.0086    -4.563    -1.628    -1.522  0.2706  0.8473  0.4571
    31 H(1)   Bbb    -0.0068    -3.609    -1.288    -1.204  0.7172  0.1393 -0.6829
              Bcc     0.0153     8.172     2.916     2.726  0.6422 -0.5126  0.5699
 
              Baa    -0.0050    -0.671    -0.239    -0.224  0.3907  0.7463 -0.5389
    32 C(13)  Bbb    -0.0049    -0.660    -0.236    -0.220 -0.0244  0.5937  0.8043
              Bcc     0.0099     1.331     0.475     0.444  0.9202 -0.3011  0.2502
 
              Baa    -0.0088    -4.680    -1.670    -1.561  0.2532  0.8917 -0.3751
    33 H(1)   Bbb    -0.0067    -3.564    -1.272    -1.189 -0.5435  0.4519  0.7074
              Bcc     0.0155     8.244     2.942     2.750  0.8003  0.0248  0.5990
 
              Baa    -0.0086    -4.567    -1.630    -1.524  0.5117  0.4997  0.6989
    34 H(1)   Bbb    -0.0066    -3.503    -1.250    -1.168 -0.4786  0.8414 -0.2510
              Bcc     0.0151     8.070     2.880     2.692  0.7135  0.2061 -0.6697
 
              Baa    -0.0074    -0.992    -0.354    -0.331  0.3127 -0.3346  0.8890
    35 C(13)  Bbb    -0.0022    -0.297    -0.106    -0.099 -0.4048  0.7997  0.4434
              Bcc     0.0096     1.288     0.460     0.430  0.8593  0.4985 -0.1146
 
              Baa    -0.0044    -2.351    -0.839    -0.784  0.2596  0.4860  0.8345
    36 H(1)   Bbb    -0.0032    -1.725    -0.615    -0.575 -0.2516  0.8683 -0.4274
              Bcc     0.0076     4.076     1.454     1.359  0.9324  0.0990 -0.3477
 
              Baa    -0.3407    24.650     8.796     8.222  0.0841 -0.3871  0.9182
    37 O(17)  Bbb    -0.2343    16.952     6.049     5.655 -0.0203  0.9206  0.3900
              Bcc     0.5749   -41.602   -14.845   -13.877  0.9963  0.0514 -0.0696
 
              Baa    -0.0235   -12.564    -4.483    -4.191  0.0552  0.4014  0.9143
    38 H(1)   Bbb    -0.0206   -10.981    -3.918    -3.663  0.9959  0.0432 -0.0791
              Bcc     0.0441    23.545     8.401     7.854 -0.0712  0.9149 -0.3973
 
              Baa    -0.0921     6.664     2.378     2.223  0.0085 -0.0090  0.9999
    39 O(17)  Bbb    -0.0232     1.677     0.598     0.559 -0.0434  0.9990  0.0094
              Bcc     0.1153    -8.341    -2.976    -2.782  0.9990  0.0435 -0.0081
 
              Baa    -0.0157    -8.371    -2.987    -2.792  0.8206  0.5261 -0.2232
    40 H(1)   Bbb    -0.0153    -8.185    -2.921    -2.730 -0.5696  0.7844 -0.2455
              Bcc     0.0310    16.555     5.907     5.522  0.0459  0.3286  0.9434
 
              Baa    -0.0122    -6.532    -2.331    -2.179  0.1816 -0.2289  0.9564
    41 H(1)   Bbb    -0.0079    -4.223    -1.507    -1.409 -0.6256  0.7234  0.2919
              Bcc     0.0202    10.755     3.838     3.587  0.7587  0.6513  0.0119
 
              Baa    -0.0041    -2.161    -0.771    -0.721 -0.0043 -0.3428  0.9394
    42 H(1)   Bbb    -0.0031    -1.662    -0.593    -0.554 -0.4530  0.8382  0.3038
              Bcc     0.0072     3.823     1.364     1.275  0.8915  0.4242  0.1589
 
              Baa    -0.0035    -1.866    -0.666    -0.623  0.3151 -0.0053  0.9491
    43 H(1)   Bbb    -0.0028    -1.488    -0.531    -0.496 -0.5527  0.8119  0.1880
              Bcc     0.0063     3.355     1.197     1.119  0.7715  0.5838 -0.2529
 
              Baa    -0.0022    -1.158    -0.413    -0.386  0.2900  0.9560  0.0438
    44 H(1)   Bbb    -0.0017    -0.910    -0.325    -0.304 -0.4868  0.1080  0.8668
              Bcc     0.0039     2.068     0.738     0.690  0.8240 -0.2727  0.4967
 
              Baa    -0.0025    -1.356    -0.484    -0.452 -0.4682 -0.5930  0.6551
    45 H(1)   Bbb    -0.0023    -1.206    -0.430    -0.402  0.2194  0.6401  0.7363
              Bcc     0.0048     2.561     0.914     0.854  0.8560 -0.4884  0.1696
 
              Baa    -0.0025    -1.342    -0.479    -0.448 -0.0734  0.7926  0.6053
    46 H(1)   Bbb    -0.0023    -1.218    -0.435    -0.406 -0.1885 -0.6070  0.7720
              Bcc     0.0048     2.560     0.913     0.854  0.9793 -0.0574  0.1939
 
              Baa    -0.0031    -1.648    -0.588    -0.550 -0.3269  0.6815 -0.6547
    47 H(1)   Bbb    -0.0021    -1.140    -0.407    -0.380  0.6460  0.6669  0.3715
              Bcc     0.0052     2.789     0.995     0.930  0.6898 -0.3015 -0.6582
 
              Baa    -0.0068    -3.652    -1.303    -1.218 -0.3688  0.8750 -0.3136
    48 H(1)   Bbb    -0.0053    -2.806    -1.001    -0.936  0.7440  0.4801  0.4646
              Bcc     0.0121     6.457     2.304     2.154 -0.5571  0.0620  0.8281
 
              Baa    -0.0096    -5.109    -1.823    -1.704  0.2288 -0.5383  0.8111
    49 H(1)   Bbb    -0.0057    -3.019    -1.077    -1.007  0.6669  0.6937  0.2722
              Bcc     0.0152     8.128     2.900     2.711  0.7092 -0.4786 -0.5177
 
              Baa    -0.0022    -1.188    -0.424    -0.396  0.2702  0.1400  0.9526
    50 H(1)   Bbb    -0.0018    -0.943    -0.336    -0.314  0.3191  0.9204 -0.2258
              Bcc     0.0040     2.131     0.760     0.711  0.9084 -0.3649 -0.2040
 
              Baa    -0.0046    -2.479    -0.884    -0.827 -0.0329  0.0987  0.9946
    51 H(1)   Bbb    -0.0036    -1.942    -0.693    -0.648  0.4709  0.8793 -0.0716
              Bcc     0.0083     4.421     1.577     1.475  0.8815 -0.4660  0.0754
 
              Baa    -0.0025    -1.331    -0.475    -0.444  0.0409  0.7093  0.7038
    52 H(1)   Bbb    -0.0025    -1.310    -0.468    -0.437 -0.1582 -0.6909  0.7054
              Bcc     0.0050     2.641     0.943     0.881  0.9866 -0.1402  0.0840
 
              Baa    -0.0021    -1.137    -0.406    -0.379  0.5563  0.0145  0.8309
    53 H(1)   Bbb    -0.0014    -0.750    -0.268    -0.250 -0.0271  0.9996  0.0008
              Bcc     0.0035     1.887     0.673     0.629  0.8306  0.0230 -0.5564
 
              Baa    -0.0029    -1.547    -0.552    -0.516  0.4945 -0.5557  0.6683
    54 H(1)   Bbb    -0.0018    -0.986    -0.352    -0.329 -0.1082  0.7236  0.6817
              Bcc     0.0047     2.534     0.904     0.845  0.8624  0.4094 -0.2977
 
              Baa    -0.0030    -1.593    -0.568    -0.531  0.1365  0.8175  0.5595
    55 H(1)   Bbb    -0.0018    -0.975    -0.348    -0.325  0.7712 -0.4422  0.4579
              Bcc     0.0048     2.569     0.917     0.857 -0.6218 -0.3690  0.6908
 
              Baa    -0.0028    -1.477    -0.527    -0.493 -0.1376  0.7144 -0.6860
    56 H(1)   Bbb    -0.0017    -0.922    -0.329    -0.307 -0.2749  0.6379  0.7194
              Bcc     0.0045     2.398     0.856     0.800  0.9516  0.2876  0.1086
 
              Baa    -0.0021    -1.103    -0.393    -0.368 -0.4482  0.8316 -0.3280
    57 H(1)   Bbb    -0.0013    -0.688    -0.246    -0.230 -0.5060  0.0665  0.8600
              Bcc     0.0034     1.791     0.639     0.597  0.7369  0.5514  0.3910
 
              Baa    -0.0027    -1.431    -0.511    -0.477  0.6620 -0.6438 -0.3837
    58 H(1)   Bbb    -0.0019    -1.030    -0.368    -0.344  0.2949 -0.2469  0.9231
              Bcc     0.0046     2.461     0.878     0.821  0.6890  0.7243 -0.0264
 
              Baa    -0.0034    -1.829    -0.653    -0.610 -0.5102  0.2872  0.8106
    59 H(1)   Bbb    -0.0028    -1.519    -0.542    -0.507  0.2263  0.9542 -0.1956
              Bcc     0.0063     3.347     1.194     1.117  0.8297 -0.0836  0.5519
 
              Baa    -0.0053    -2.843    -1.014    -0.948 -0.4737  0.8238  0.3114
    60 H(1)   Bbb    -0.0047    -2.521    -0.899    -0.841  0.6975  0.5669 -0.4384
              Bcc     0.0101     5.363     1.914     1.789  0.5377 -0.0095  0.8431
 
              Baa    -0.0022    -1.193    -0.426    -0.398 -0.5078  0.8294  0.2327
    61 H(1)   Bbb    -0.0019    -1.014    -0.362    -0.338 -0.5809 -0.5292  0.6185
              Bcc     0.0041     2.207     0.788     0.736  0.6362  0.1789  0.7505
 
              Baa    -0.0026    -1.401    -0.500    -0.467 -0.1013  0.7456 -0.6587
    62 H(1)   Bbb    -0.0017    -0.904    -0.323    -0.302  0.9036 -0.2081 -0.3745
              Bcc     0.0043     2.305     0.823     0.769  0.4163  0.6331  0.6526
 
              Baa    -0.0078    -4.188    -1.494    -1.397  0.1140  0.7208 -0.6838
    63 H(1)   Bbb    -0.0053    -2.805    -1.001    -0.936  0.9479 -0.2851 -0.1425
              Bcc     0.0131     6.993     2.495     2.333  0.2976  0.6319  0.7157
 
              Baa    -0.0041    -2.198    -0.784    -0.733 -0.0221 -0.3610  0.9323
    64 H(1)   Bbb    -0.0025    -1.328    -0.474    -0.443  0.9220 -0.3679 -0.1206
              Bcc     0.0066     3.526     1.258     1.176  0.3866  0.8569  0.3410
 

 ---------------------------------------------------------------------------------

 1\1\GINC-NODE266\FOpt\UPBE1PBE\GenECP\C20H37N2O3P1Ru1(3)\JS1212\29-Jul
 -2020\0\\# opt=ModRedundant genecp pbe1pbe EmpiricalDispersion=GD3BJ N
 oSymm\\Title Card Required\\0,3\N,-0.7526640029,1.1982429617,-0.063570
 151\C,-1.8977251494,1.7604289215,0.3622691252\C,0.1676343977,1.9523052
 994,-0.6906733886\C,-2.1500096293,3.1187597316,0.2117373924\C,-1.19299
 97011,3.9161269988,-0.4084554398\C,-0.0274011551,3.3234504272,-0.87271
 06343\C,-2.8868501024,0.8243720712,0.9913700189\H,-3.0927514097,3.5343
 538497,0.5693597002\H,-1.3624996656,4.9861536538,-0.5420975136\H,0.738
 9980515,3.9086532451,-1.3822771988\C,1.3906993425,1.2675830843,-1.2095
 274994\N,-2.996419706,-0.3926594395,0.2101687636\H,-3.8528664836,1.346
 9025219,1.1383404341\H,-2.5136245278,0.5426813298,1.9913303728\H,1.085
 5538384,0.7229381954,-2.1232044837\P,1.9709169497,-0.1140658768,-0.110
 3974471\H,2.1678963599,2.001595738,-1.464575583\Ru,-0.4791243683,-1.00
 80011746,0.0346161425\C,-3.495017326,-0.1685871587,-1.1511603051\C,3.2
 421419763,-0.9724322078,-1.2381755159\C,-3.703908304,-1.4341754925,0.9
 552862478\C,2.8254898706,0.7413749043,1.3593627167\C,2.4305627731,-1.8
 848510454,-2.1629573338\C,4.16934789,-1.8503593023,-0.3975078409\C,4.0
 672523842,-0.0042821204,-2.087353012\C,1.8048769054,1.7088934913,1.968
 7921757\C,4.0924957289,1.5165139919,1.0072668925\C,3.1256173094,-0.331
 2839989,2.4123051212\C,-0.4357545165,-1.3118172802,1.8740049538\O,-0.4
 063950137,-1.6282733104,2.9973703742\H,-2.8318546533,0.5716287236,-1.6
 209465316\C,-4.9496073387,0.2663449942,-1.262714013\H,-3.3074647526,-1
 .0892053616,-1.7179705794\H,-3.1567548424,-1.5640600657,1.9025290008\C
 ,-3.7622409452,-2.7600250489,0.2218077688\H,-4.7275556139,-1.098827716
 5,1.2258722075\O,-0.4299327752,-2.8104145249,-0.6736103007\H,-0.340375
 3422,-3.5240857578,-0.020390653\O,-0.6104068467,-1.131889666,-1.914178
 9186\H,-0.5623577162,-2.0731834334,-2.1095435657\H,-2.7627251556,-3.03
 63926784,-0.1484397244\H,-4.4526372024,-2.73330793,-0.6343870392\H,-4.
 1187773818,-3.5423187089,0.9081413336\H,-5.205817791,0.4182625999,-2.3
 221002976\H,-5.14759794,1.2162328638,-0.7408692248\H,-5.6436240119,-0.
 4884373689,-0.8615989679\H,3.1197427358,-2.3697644458,-2.8750885079\H,
 1.658991516,-1.3382516752,-2.7235219793\H,1.8993848794,-2.6586208362,-
 1.5910803747\H,4.7613328876,-2.4890705821,-1.0739972069\H,3.6006317289
 ,-2.5140339351,0.2716460081\H,4.8784378661,-1.2666154139,0.2066541858\
 H,4.7917260468,-0.5835294019,-2.6851221751\H,4.6361306684,0.7185519918
 ,-1.4874582292\H,3.4387074365,0.5511853695,-2.7982216702\H,4.903996703
 2,0.8592820402,0.6653098005\H,4.4575737042,2.0485515242,1.903032328\H,
 3.9106382441,2.2743440722,0.2292043666\H,3.8880855006,-1.0479269181,2.
 0829296241\H,2.2180338928,-0.8924739113,2.6788503697\H,3.5014828076,0.
 1566502187,3.3275279433\H,2.20048807,2.0827077768,2.9278730639\H,0.843
 3796598,1.2132438327,2.169061882\H,1.618980245,2.5814093637,1.32628199
 22\\Version=ES64L-G16RevA.03\HF=-1554.5804605\S2=2.025423\S2-1=0.\S2A=
 2.000364\RMSD=3.100e-09\RMSF=8.355e-03\Dipole=0.2166858,2.1550456,0.26
 86196\Quadrupole=9.53435,3.9033601,-13.4377102,-3.0743881,-3.1504155,-
 1.4441978\PG=C01 [X(C20H37N2O3P1Ru1)]\\@


      SCIENCE SANS CONSCIENCE N'EST QUE RUINE DE L'AME.

                                                  -- RABELAIS
 Job cpu time:       2 days 17 hours  3 minutes 18.1 seconds.
 Elapsed time:       0 days  3 hours 15 minutes 41.5 seconds.
 File lengths (MBytes):  RWF=    376 Int=      0 D2E=      0 Chk=     37 Scr=      1
 Normal termination of Gaussian 16 at Wed Jul 29 20:07:54 2020.
