 Entering Gaussian System, Link 0=g16
 Initial command:
 /cluster/chemistry/gaussian/g16/l1.exe "/scratch/js1212.758397/scratch/Gau-25874.inp" -scrdir="/scratch/js1212.758397/scratch/"
 Entering Link 1 = /cluster/chemistry/gaussian/g16/l1.exe PID=     25875.
  
 Copyright (c) 1988,1990,1992,1993,1995,1998,2003,2009,2016,
            Gaussian, Inc.  All Rights Reserved.
  
 This is part of the Gaussian(R) 16 program.  It is based on
 the Gaussian(R) 09 system (copyright 2009, Gaussian, Inc.),
 the Gaussian(R) 03 system (copyright 2003, Gaussian, Inc.),
 the Gaussian(R) 98 system (copyright 1998, Gaussian, Inc.),
 the Gaussian(R) 94 system (copyright 1995, Gaussian, Inc.),
 the Gaussian 92(TM) system (copyright 1992, Gaussian, Inc.),
 the Gaussian 90(TM) system (copyright 1990, Gaussian, Inc.),
 the Gaussian 88(TM) system (copyright 1988, Gaussian, Inc.),
 the Gaussian 86(TM) system (copyright 1986, Carnegie Mellon
 University), and the Gaussian 82(TM) system (copyright 1983,
 Carnegie Mellon University). Gaussian is a federally registered
 trademark of Gaussian, Inc.
  
 This software contains proprietary and confidential information,
 including trade secrets, belonging to Gaussian, Inc.
  
 This software is provided under written license and may be
 used, copied, transmitted, or stored only in accord with that
 written license.
  
 The following legend is applicable only to US Government
 contracts under FAR:
  
                    RESTRICTED RIGHTS LEGEND
  
 Use, reproduction and disclosure by the US Government is
 subject to restrictions as set forth in subparagraphs (a)
 and (c) of the Commercial Computer Software - Restricted
 Rights clause in FAR 52.227-19.
  
 Gaussian, Inc.
 340 Quinnipiac St., Bldg. 40, Wallingford CT 06492
  
  
 ---------------------------------------------------------------
 Warning -- This program may not be used in any manner that
 competes with the business of Gaussian, Inc. or will provide
 assistance to any competitor of Gaussian, Inc.  The licensee
 of this program is prohibited from giving any competitor of
 Gaussian, Inc. access to this program.  By using this program,
 the user acknowledges that Gaussian, Inc. is engaged in the
 business of creating and licensing software in the field of
 computational chemistry and represents and warrants to the
 licensee that it is not a competitor of Gaussian, Inc. and that
 it will not use this program in any manner prohibited above.
 ---------------------------------------------------------------
  

 Cite this work as:
 Gaussian 16, Revision A.03,
 M. J. Frisch, G. W. Trucks, H. B. Schlegel, G. E. Scuseria, 
 M. A. Robb, J. R. Cheeseman, G. Scalmani, V. Barone, 
 G. A. Petersson, H. Nakatsuji, X. Li, M. Caricato, A. V. Marenich, 
 J. Bloino, B. G. Janesko, R. Gomperts, B. Mennucci, H. P. Hratchian, 
 J. V. Ortiz, A. F. Izmaylov, J. L. Sonnenberg, D. Williams-Young, 
 F. Ding, F. Lipparini, F. Egidi, J. Goings, B. Peng, A. Petrone, 
 T. Henderson, D. Ranasinghe, V. G. Zakrzewski, J. Gao, N. Rega, 
 G. Zheng, W. Liang, M. Hada, M. Ehara, K. Toyota, R. Fukuda, 
 J. Hasegawa, M. Ishida, T. Nakajima, Y. Honda, O. Kitao, H. Nakai, 
 T. Vreven, K. Throssell, J. A. Montgomery, Jr., J. E. Peralta, 
 F. Ogliaro, M. J. Bearpark, J. J. Heyd, E. N. Brothers, K. N. Kudin, 
 V. N. Staroverov, T. A. Keith, R. Kobayashi, J. Normand, 
 K. Raghavachari, A. P. Rendell, J. C. Burant, S. S. Iyengar, 
 J. Tomasi, M. Cossi, J. M. Millam, M. Klene, C. Adamo, R. Cammi, 
 J. W. Ochterski, R. L. Martin, K. Morokuma, O. Farkas, 
 J. B. Foresman, and D. J. Fox, Gaussian, Inc., Wallingford CT, 2016.
 
 ******************************************
 Gaussian 16:  ES64L-G16RevA.03 25-Dec-2016
                29-Jul-2020 
 ******************************************
 %rwf=/scratch/js1212.758397/3-Full-Disp-OO-Scan-GPO-Geo8-T-GPO.rwf
 %nosave
 %nprocshared=20
 Will use up to   20 processors via shared memory.
 %mem=3000MB
 %chk=/scratch/js1212.758397/3-Full-Disp-OO-Scan-GPO-Geo8-T-GPO.chk
 ------------------------------------------------------------------
 # opt=ModRedundant genecp pbe1pbe EmpiricalDispersion=GD3BJ NoSymm
 ------------------------------------------------------------------
 1/18=120,19=15,26=3,38=1/1,3;
 2/9=110,12=2,15=1,17=6,18=5,40=1/2;
 3/5=7,11=2,16=1,17=8,25=1,30=1,71=1,74=-13,124=41/1,2,3;
 4//1;
 5/5=2,38=5/2;
 6/7=2,8=2,9=2,10=2,28=1/1;
 7/30=1/1,2,3,16;
 1/18=20,19=15,26=3/3(2);
 2/9=110,15=1/2;
 99//99;
 2/9=110,15=1/2;
 3/5=7,6=1,11=2,16=1,17=8,25=1,30=1,71=1,74=-13,82=7,124=41/1,2,3;
 4/5=5,16=3,69=1/1;
 5/5=2,38=5/2;
 7/30=1/1,2,3,16;
 1/18=20,19=15,26=3/3(-5);
 2/9=110,15=1/2;
 6/7=2,8=2,9=2,10=2,19=2,28=1/1;
 99/9=1/99;
 -------------------
 Title Card Required
 -------------------
 Symbolic Z-matrix:
 Charge =  0 Multiplicity = 3
 N                    -0.71213   1.39553  -0.0722 
 C                    -1.91136   1.88916   0.29171 
 C                     0.1916    2.1747   -0.69952 
 C                    -2.23358   3.22427   0.089 
 C                    -1.28961   4.05901  -0.50648 
 C                    -0.07073   3.52723  -0.9133 
 C                    -2.82214   0.87857   0.91912 
 H                    -3.21253   3.599     0.38975 
 H                    -1.51223   5.11459  -0.67138 
 H                     0.67571   4.14907  -1.40876 
 C                     1.43561   1.4909   -1.17307 
 N                    -2.73421  -0.4131    0.21863 
 H                    -3.85696   1.26201   0.95735 
 H                    -2.49367   0.7119    1.95846 
 H                     1.21874   1.08962  -2.17909 
 P                     1.779    -0.0552   -0.17298 
 H                     2.28066   2.18998  -1.25173 
 Ru                   -0.4128   -0.64666   0.09341 
 C                    -3.30076  -0.3154   -1.14531 
 C                     3.01266  -0.99793  -1.28573 
 C                    -3.40026  -1.45021   1.03534 
 C                     2.70215   0.60526   1.36431 
 C                     2.18967  -1.75215  -2.33211 
 C                     3.76252  -2.03875  -0.45305 
 C                     4.00075  -0.08843  -2.01993 
 C                     1.83261   1.69968   1.99472 
 C                     4.06142   1.22462   1.03599 
 C                     2.89564  -0.51488   2.39108 
 C                    -0.36779  -0.8281    1.93573 
 O                    -0.43238  -1.08518   3.07491 
 H                    -2.75888   0.49451  -1.65309 
 C                    -4.8022   -0.09289  -1.23066 
 H                    -2.97912  -1.21754  -1.67808 
 H                    -2.84712  -1.5014    1.98452 
 C                    -3.40691  -2.81072   0.36903 
 H                    -4.42909  -1.12123   1.28508 
 O                    -0.4463   -2.47954  -0.66235 
 H                    -0.18682  -3.1594    0.0123 
 O                    -0.75004  -1.06396  -1.77999 
 H                    -0.13918  -1.71042  -2.11939 
 H                    -2.40939  -3.01414  -0.05576 
 H                    -4.15023  -2.87316  -0.43973 
 H                    -3.66046  -3.57996   1.11347 
 H                    -5.08419  -0.01344  -2.29133 
 H                    -5.13361   0.83651  -0.74041 
 H                    -5.38027  -0.92527  -0.80219 
 H                     2.88083  -2.30677  -2.98888 
 H                     1.5964   -1.07265  -2.96119 
 H                     1.50471  -2.46369  -1.84558 
 H                     4.30617  -2.71301  -1.13539 
 H                     3.06906  -2.65519   0.13932 
 H                     4.5034   -1.59128   0.22333 
 H                     4.65814  -0.71964  -2.64159 
 H                     4.64344   0.49698  -1.35213 
 H                     3.48724   0.60417  -2.70288 
 H                     4.79681   0.47908   0.70611 
 H                     4.46307   1.69477   1.94917 
 H                     3.9931    2.01153   0.26963 
 H                     3.59074  -1.2881    2.04312 
 H                     1.95041  -0.9993    2.66107 
 H                     3.31971  -0.07913   3.3113 
 H                     2.29984   2.01422   2.94222 
 H                     0.81739   1.34646   2.21633 
 H                     1.7592    2.59097   1.35415 
 
 The following ModRedundant input section has been read:
 B      37      39 F                                                           
 

 GradGradGradGradGradGradGradGradGradGradGradGradGradGradGradGradGradGrad
 Berny optimization.
 Initialization pass.
                           ----------------------------
                           !    Initial Parameters    !
                           ! (Angstroms and Degrees)  !
 --------------------------                            --------------------------
 ! Name  Definition              Value          Derivative Info.                !
 --------------------------------------------------------------------------------
 ! R1    R(1,2)                  1.3469         estimate D2E/DX2                !
 ! R2    R(1,3)                  1.3481         estimate D2E/DX2                !
 ! R3    R(1,18)                 2.0706         estimate D2E/DX2                !
 ! R4    R(2,4)                  1.3883         estimate D2E/DX2                !
 ! R5    R(2,7)                  1.4982         estimate D2E/DX2                !
 ! R6    R(3,6)                  1.3942         estimate D2E/DX2                !
 ! R7    R(3,11)                 1.4965         estimate D2E/DX2                !
 ! R8    R(4,5)                  1.3937         estimate D2E/DX2                !
 ! R9    R(4,8)                  1.0905         estimate D2E/DX2                !
 ! R10   R(5,6)                  1.3907         estimate D2E/DX2                !
 ! R11   R(5,9)                  1.0913         estimate D2E/DX2                !
 ! R12   R(6,10)                 1.0906         estimate D2E/DX2                !
 ! R13   R(7,12)                 1.472          estimate D2E/DX2                !
 ! R14   R(7,13)                 1.1042         estimate D2E/DX2                !
 ! R15   R(7,14)                 1.1027         estimate D2E/DX2                !
 ! R16   R(11,15)                1.1046         estimate D2E/DX2                !
 ! R17   R(11,16)                1.8731         estimate D2E/DX2                !
 ! R18   R(11,17)                1.0996         estimate D2E/DX2                !
 ! R19   R(12,19)                1.4802         estimate D2E/DX2                !
 ! R20   R(12,21)                1.4786         estimate D2E/DX2                !
 ! R21   R(16,18)                2.2858         estimate D2E/DX2                !
 ! R22   R(16,20)                1.9102         estimate D2E/DX2                !
 ! R23   R(16,22)                1.9109         estimate D2E/DX2                !
 ! R24   R(18,29)                1.8518         estimate D2E/DX2                !
 ! R25   R(18,37)                1.9829         estimate D2E/DX2                !
 ! R26   R(18,39)                1.9487         estimate D2E/DX2                !
 ! R27   R(19,31)                1.0988         estimate D2E/DX2                !
 ! R28   R(19,32)                1.5202         estimate D2E/DX2                !
 ! R29   R(19,33)                1.096          estimate D2E/DX2                !
 ! R30   R(20,23)                1.5301         estimate D2E/DX2                !
 ! R31   R(20,24)                1.5294         estimate D2E/DX2                !
 ! R32   R(20,25)                1.5306         estimate D2E/DX2                !
 ! R33   R(21,34)                1.0998         estimate D2E/DX2                !
 ! R34   R(21,35)                1.5149         estimate D2E/DX2                !
 ! R35   R(21,36)                1.1086         estimate D2E/DX2                !
 ! R36   R(22,26)                1.5334         estimate D2E/DX2                !
 ! R37   R(22,27)                1.5294         estimate D2E/DX2                !
 ! R38   R(22,28)                1.5318         estimate D2E/DX2                !
 ! R39   R(23,47)                1.103          estimate D2E/DX2                !
 ! R40   R(23,48)                1.0997         estimate D2E/DX2                !
 ! R41   R(23,49)                1.101          estimate D2E/DX2                !
 ! R42   R(24,50)                1.1026         estimate D2E/DX2                !
 ! R43   R(24,51)                1.1008         estimate D2E/DX2                !
 ! R44   R(24,52)                1.0985         estimate D2E/DX2                !
 ! R45   R(25,53)                1.1032         estimate D2E/DX2                !
 ! R46   R(25,54)                1.0962         estimate D2E/DX2                !
 ! R47   R(25,55)                1.0999         estimate D2E/DX2                !
 ! R48   R(26,62)                1.1023         estimate D2E/DX2                !
 ! R49   R(26,63)                1.0975         estimate D2E/DX2                !
 ! R50   R(26,64)                1.1001         estimate D2E/DX2                !
 ! R51   R(27,56)                1.0979         estimate D2E/DX2                !
 ! R52   R(27,57)                1.1028         estimate D2E/DX2                !
 ! R53   R(27,58)                1.1005         estimate D2E/DX2                !
 ! R54   R(28,59)                1.0964         estimate D2E/DX2                !
 ! R55   R(28,60)                1.0959         estimate D2E/DX2                !
 ! R56   R(28,61)                1.103          estimate D2E/DX2                !
 ! R57   R(29,30)                1.1696         estimate D2E/DX2                !
 ! R58   R(32,44)                1.1004         estimate D2E/DX2                !
 ! R59   R(32,45)                1.1018         estimate D2E/DX2                !
 ! R60   R(32,46)                1.1003         estimate D2E/DX2                !
 ! R61   R(35,41)                1.1031         estimate D2E/DX2                !
 ! R62   R(35,42)                1.1002         estimate D2E/DX2                !
 ! R63   R(35,43)                1.1001         estimate D2E/DX2                !
 ! R64   R(37,38)                0.9923         estimate D2E/DX2                !
 ! R65   R(37,39)                1.829          Frozen                          !
 ! R66   R(39,40)                0.952          estimate D2E/DX2                !
 ! A1    A(2,1,3)              120.7147         estimate D2E/DX2                !
 ! A2    A(2,1,18)             117.9398         estimate D2E/DX2                !
 ! A3    A(3,1,18)             120.6867         estimate D2E/DX2                !
 ! A4    A(1,2,4)              121.3076         estimate D2E/DX2                !
 ! A5    A(1,2,7)              114.029          estimate D2E/DX2                !
 ! A6    A(4,2,7)              124.6631         estimate D2E/DX2                !
 ! A7    A(1,3,6)              120.3917         estimate D2E/DX2                !
 ! A8    A(1,3,11)             116.1318         estimate D2E/DX2                !
 ! A9    A(6,3,11)             123.4475         estimate D2E/DX2                !
 ! A10   A(2,4,5)              118.7607         estimate D2E/DX2                !
 ! A11   A(2,4,8)              119.9035         estimate D2E/DX2                !
 ! A12   A(5,4,8)              121.335          estimate D2E/DX2                !
 ! A13   A(4,5,6)              119.3142         estimate D2E/DX2                !
 ! A14   A(4,5,9)              120.3776         estimate D2E/DX2                !
 ! A15   A(6,5,9)              120.2955         estimate D2E/DX2                !
 ! A16   A(3,6,5)              119.4075         estimate D2E/DX2                !
 ! A17   A(3,6,10)             119.6055         estimate D2E/DX2                !
 ! A18   A(5,6,10)             120.9814         estimate D2E/DX2                !
 ! A19   A(2,7,12)             110.8736         estimate D2E/DX2                !
 ! A20   A(2,7,13)             110.486          estimate D2E/DX2                !
 ! A21   A(2,7,14)             108.3972         estimate D2E/DX2                !
 ! A22   A(12,7,13)            112.1578         estimate D2E/DX2                !
 ! A23   A(12,7,14)            107.3442         estimate D2E/DX2                !
 ! A24   A(13,7,14)            107.3982         estimate D2E/DX2                !
 ! A25   A(3,11,15)            106.9179         estimate D2E/DX2                !
 ! A26   A(3,11,16)            111.1377         estimate D2E/DX2                !
 ! A27   A(3,11,17)            111.7778         estimate D2E/DX2                !
 ! A28   A(15,11,16)           102.8498         estimate D2E/DX2                !
 ! A29   A(15,11,17)           108.4643         estimate D2E/DX2                !
 ! A30   A(16,11,17)           114.9667         estimate D2E/DX2                !
 ! A31   A(7,12,19)            110.9605         estimate D2E/DX2                !
 ! A32   A(7,12,21)            109.0093         estimate D2E/DX2                !
 ! A33   A(19,12,21)           112.5114         estimate D2E/DX2                !
 ! A34   A(11,16,18)            95.7403         estimate D2E/DX2                !
 ! A35   A(11,16,20)           102.4002         estimate D2E/DX2                !
 ! A36   A(11,16,22)           103.4622         estimate D2E/DX2                !
 ! A37   A(18,16,20)           124.0185         estimate D2E/DX2                !
 ! A38   A(18,16,22)           117.3167         estimate D2E/DX2                !
 ! A39   A(20,16,22)           109.0991         estimate D2E/DX2                !
 ! A40   A(1,18,16)             82.7668         estimate D2E/DX2                !
 ! A41   A(1,18,29)            100.3535         estimate D2E/DX2                !
 ! A42   A(1,18,37)            151.4899         estimate D2E/DX2                !
 ! A43   A(1,18,39)             96.2747         estimate D2E/DX2                !
 ! A44   A(16,18,29)            96.7761         estimate D2E/DX2                !
 ! A45   A(16,18,37)           102.179          estimate D2E/DX2                !
 ! A46   A(16,18,39)            96.2759         estimate D2E/DX2                !
 ! A47   A(29,18,37)           106.8003         estimate D2E/DX2                !
 ! A48   A(29,18,39)           159.9951         estimate D2E/DX2                !
 ! A49   A(37,18,39)            55.439          estimate D2E/DX2                !
 ! A50   A(12,19,31)           106.6016         estimate D2E/DX2                !
 ! A51   A(12,19,32)           116.0675         estimate D2E/DX2                !
 ! A52   A(12,19,33)           106.3368         estimate D2E/DX2                !
 ! A53   A(31,19,32)           110.6843         estimate D2E/DX2                !
 ! A54   A(31,19,33)           103.7301         estimate D2E/DX2                !
 ! A55   A(32,19,33)           112.5221         estimate D2E/DX2                !
 ! A56   A(16,20,23)           107.1143         estimate D2E/DX2                !
 ! A57   A(16,20,24)           109.5945         estimate D2E/DX2                !
 ! A58   A(16,20,25)           113.7721         estimate D2E/DX2                !
 ! A59   A(23,20,24)           107.4943         estimate D2E/DX2                !
 ! A60   A(23,20,25)           108.186          estimate D2E/DX2                !
 ! A61   A(24,20,25)           110.4296         estimate D2E/DX2                !
 ! A62   A(12,21,34)           106.4276         estimate D2E/DX2                !
 ! A63   A(12,21,35)           112.8896         estimate D2E/DX2                !
 ! A64   A(12,21,36)           109.5311         estimate D2E/DX2                !
 ! A65   A(34,21,35)           109.8773         estimate D2E/DX2                !
 ! A66   A(34,21,36)           106.6269         estimate D2E/DX2                !
 ! A67   A(35,21,36)           111.1924         estimate D2E/DX2                !
 ! A68   A(16,22,26)           107.6658         estimate D2E/DX2                !
 ! A69   A(16,22,27)           113.3673         estimate D2E/DX2                !
 ! A70   A(16,22,28)           110.3357         estimate D2E/DX2                !
 ! A71   A(26,22,27)           107.651          estimate D2E/DX2                !
 ! A72   A(26,22,28)           108.54           estimate D2E/DX2                !
 ! A73   A(27,22,28)           109.1339         estimate D2E/DX2                !
 ! A74   A(20,23,47)           108.5433         estimate D2E/DX2                !
 ! A75   A(20,23,48)           112.1356         estimate D2E/DX2                !
 ! A76   A(20,23,49)           110.5478         estimate D2E/DX2                !
 ! A77   A(47,23,48)           107.9456         estimate D2E/DX2                !
 ! A78   A(47,23,49)           109.1471         estimate D2E/DX2                !
 ! A79   A(48,23,49)           108.45           estimate D2E/DX2                !
 ! A80   A(20,24,50)           108.7218         estimate D2E/DX2                !
 ! A81   A(20,24,51)           111.4206         estimate D2E/DX2                !
 ! A82   A(20,24,52)           112.875          estimate D2E/DX2                !
 ! A83   A(50,24,51)           107.5286         estimate D2E/DX2                !
 ! A84   A(50,24,52)           107.314          estimate D2E/DX2                !
 ! A85   A(51,24,52)           108.7628         estimate D2E/DX2                !
 ! A86   A(20,25,53)           108.3612         estimate D2E/DX2                !
 ! A87   A(20,25,54)           113.803          estimate D2E/DX2                !
 ! A88   A(20,25,55)           111.7546         estimate D2E/DX2                !
 ! A89   A(53,25,54)           107.4258         estimate D2E/DX2                !
 ! A90   A(53,25,55)           106.7742         estimate D2E/DX2                !
 ! A91   A(54,25,55)           108.4031         estimate D2E/DX2                !
 ! A92   A(22,26,62)           108.4628         estimate D2E/DX2                !
 ! A93   A(22,26,63)           112.2012         estimate D2E/DX2                !
 ! A94   A(22,26,64)           112.1305         estimate D2E/DX2                !
 ! A95   A(62,26,63)           108.0814         estimate D2E/DX2                !
 ! A96   A(62,26,64)           107.3154         estimate D2E/DX2                !
 ! A97   A(63,26,64)           108.4583         estimate D2E/DX2                !
 ! A98   A(22,27,56)           112.6312         estimate D2E/DX2                !
 ! A99   A(22,27,57)           108.5765         estimate D2E/DX2                !
 ! A100  A(22,27,58)           112.5743         estimate D2E/DX2                !
 ! A101  A(56,27,57)           107.1173         estimate D2E/DX2                !
 ! A102  A(56,27,58)           108.5351         estimate D2E/DX2                !
 ! A103  A(57,27,58)           107.1206         estimate D2E/DX2                !
 ! A104  A(22,28,59)           112.523          estimate D2E/DX2                !
 ! A105  A(22,28,60)           112.2979         estimate D2E/DX2                !
 ! A106  A(22,28,61)           108.5975         estimate D2E/DX2                !
 ! A107  A(59,28,60)           108.2563         estimate D2E/DX2                !
 ! A108  A(59,28,61)           107.436          estimate D2E/DX2                !
 ! A109  A(60,28,61)           107.5004         estimate D2E/DX2                !
 ! A110  A(19,32,44)           108.5289         estimate D2E/DX2                !
 ! A111  A(19,32,45)           113.3007         estimate D2E/DX2                !
 ! A112  A(19,32,46)           112.7243         estimate D2E/DX2                !
 ! A113  A(44,32,45)           106.9126         estimate D2E/DX2                !
 ! A114  A(44,32,46)           107.1782         estimate D2E/DX2                !
 ! A115  A(45,32,46)           107.8686         estimate D2E/DX2                !
 ! A116  A(21,35,41)           109.33           estimate D2E/DX2                !
 ! A117  A(21,35,42)           112.1628         estimate D2E/DX2                !
 ! A118  A(21,35,43)           109.3508         estimate D2E/DX2                !
 ! A119  A(41,35,42)           108.5056         estimate D2E/DX2                !
 ! A120  A(41,35,43)           109.8807         estimate D2E/DX2                !
 ! A121  A(42,35,43)           107.5799         estimate D2E/DX2                !
 ! A122  A(18,37,38)           111.7007         estimate D2E/DX2                !
 ! A123  A(18,39,40)           112.1549         estimate D2E/DX2                !
 ! A124  L(18,29,30,13,-1)     179.3778         estimate D2E/DX2                !
 ! A125  L(18,29,30,13,-2)     171.1973         estimate D2E/DX2                !
 ! D1    D(3,1,2,4)             -2.9205         estimate D2E/DX2                !
 ! D2    D(3,1,2,7)            177.2618         estimate D2E/DX2                !
 ! D3    D(18,1,2,4)          -173.6805         estimate D2E/DX2                !
 ! D4    D(18,1,2,7)             6.5017         estimate D2E/DX2                !
 ! D5    D(2,1,3,6)              3.7244         estimate D2E/DX2                !
 ! D6    D(2,1,3,11)          -174.3815         estimate D2E/DX2                !
 ! D7    D(18,1,3,6)           174.23           estimate D2E/DX2                !
 ! D8    D(18,1,3,11)           -3.8759         estimate D2E/DX2                !
 ! D9    D(2,1,18,16)         -165.7332         estimate D2E/DX2                !
 ! D10   D(2,1,18,29)          -70.1254         estimate D2E/DX2                !
 ! D11   D(2,1,18,37)           92.0344         estimate D2E/DX2                !
 ! D12   D(2,1,18,39)           98.7059         estimate D2E/DX2                !
 ! D13   D(3,1,18,16)           23.504          estimate D2E/DX2                !
 ! D14   D(3,1,18,29)          119.1118         estimate D2E/DX2                !
 ! D15   D(3,1,18,37)          -78.7284         estimate D2E/DX2                !
 ! D16   D(3,1,18,39)          -72.0568         estimate D2E/DX2                !
 ! D17   D(1,2,4,5)              0.1421         estimate D2E/DX2                !
 ! D18   D(1,2,4,8)            179.8156         estimate D2E/DX2                !
 ! D19   D(7,2,4,5)            179.9397         estimate D2E/DX2                !
 ! D20   D(7,2,4,8)             -0.3868         estimate D2E/DX2                !
 ! D21   D(1,2,7,12)           -40.5522         estimate D2E/DX2                !
 ! D22   D(1,2,7,13)          -165.5379         estimate D2E/DX2                !
 ! D23   D(1,2,7,14)            77.033          estimate D2E/DX2                !
 ! D24   D(4,2,7,12)           139.6371         estimate D2E/DX2                !
 ! D25   D(4,2,7,13)            14.6514         estimate D2E/DX2                !
 ! D26   D(4,2,7,14)          -102.7776         estimate D2E/DX2                !
 ! D27   D(1,3,6,5)             -1.7647         estimate D2E/DX2                !
 ! D28   D(1,3,6,10)           179.0836         estimate D2E/DX2                !
 ! D29   D(11,3,6,5)           176.1973         estimate D2E/DX2                !
 ! D30   D(11,3,6,10)           -2.9544         estimate D2E/DX2                !
 ! D31   D(1,3,11,15)           86.9334         estimate D2E/DX2                !
 ! D32   D(1,3,11,16)          -24.5864         estimate D2E/DX2                !
 ! D33   D(1,3,11,17)         -154.5115         estimate D2E/DX2                !
 ! D34   D(6,3,11,15)          -91.1086         estimate D2E/DX2                !
 ! D35   D(6,3,11,16)          157.3716         estimate D2E/DX2                !
 ! D36   D(6,3,11,17)           27.4465         estimate D2E/DX2                !
 ! D37   D(2,4,5,6)              1.758          estimate D2E/DX2                !
 ! D38   D(2,4,5,9)           -179.5324         estimate D2E/DX2                !
 ! D39   D(8,4,5,6)           -177.9106         estimate D2E/DX2                !
 ! D40   D(8,4,5,9)              0.799          estimate D2E/DX2                !
 ! D41   D(4,5,6,3)             -0.9679         estimate D2E/DX2                !
 ! D42   D(4,5,6,10)           178.1718         estimate D2E/DX2                !
 ! D43   D(9,5,6,3)           -179.6786         estimate D2E/DX2                !
 ! D44   D(9,5,6,10)            -0.5389         estimate D2E/DX2                !
 ! D45   D(2,7,12,19)          -68.1176         estimate D2E/DX2                !
 ! D46   D(2,7,12,21)          167.4372         estimate D2E/DX2                !
 ! D47   D(13,7,12,19)          55.9189         estimate D2E/DX2                !
 ! D48   D(13,7,12,21)         -68.5263         estimate D2E/DX2                !
 ! D49   D(14,7,12,19)         173.656          estimate D2E/DX2                !
 ! D50   D(14,7,12,21)          49.2109         estimate D2E/DX2                !
 ! D51   D(3,11,16,18)          35.8914         estimate D2E/DX2                !
 ! D52   D(3,11,16,20)         162.6048         estimate D2E/DX2                !
 ! D53   D(3,11,16,22)         -83.9972         estimate D2E/DX2                !
 ! D54   D(15,11,16,18)        -78.2004         estimate D2E/DX2                !
 ! D55   D(15,11,16,20)         48.513          estimate D2E/DX2                !
 ! D56   D(15,11,16,22)        161.911          estimate D2E/DX2                !
 ! D57   D(17,11,16,18)        164.119          estimate D2E/DX2                !
 ! D58   D(17,11,16,20)        -69.1676         estimate D2E/DX2                !
 ! D59   D(17,11,16,22)         44.2304         estimate D2E/DX2                !
 ! D60   D(7,12,19,31)          56.0626         estimate D2E/DX2                !
 ! D61   D(7,12,19,32)         -67.7288         estimate D2E/DX2                !
 ! D62   D(7,12,19,33)         166.2739         estimate D2E/DX2                !
 ! D63   D(21,12,19,31)        178.497          estimate D2E/DX2                !
 ! D64   D(21,12,19,32)         54.7056         estimate D2E/DX2                !
 ! D65   D(21,12,19,33)        -71.2917         estimate D2E/DX2                !
 ! D66   D(7,12,21,34)         -61.5564         estimate D2E/DX2                !
 ! D67   D(7,12,21,35)         177.8292         estimate D2E/DX2                !
 ! D68   D(7,12,21,36)          53.3487         estimate D2E/DX2                !
 ! D69   D(19,12,21,34)        174.9156         estimate D2E/DX2                !
 ! D70   D(19,12,21,35)         54.3012         estimate D2E/DX2                !
 ! D71   D(19,12,21,36)        -70.1793         estimate D2E/DX2                !
 ! D72   D(11,16,18,1)         -28.1037         estimate D2E/DX2                !
 ! D73   D(11,16,18,29)       -127.7379         estimate D2E/DX2                !
 ! D74   D(11,16,18,37)        123.3924         estimate D2E/DX2                !
 ! D75   D(11,16,18,39)         67.4557         estimate D2E/DX2                !
 ! D76   D(20,16,18,1)        -137.2654         estimate D2E/DX2                !
 ! D77   D(20,16,18,29)        123.1005         estimate D2E/DX2                !
 ! D78   D(20,16,18,37)         14.2308         estimate D2E/DX2                !
 ! D79   D(20,16,18,39)        -41.7059         estimate D2E/DX2                !
 ! D80   D(22,16,18,1)          80.2731         estimate D2E/DX2                !
 ! D81   D(22,16,18,29)        -19.3611         estimate D2E/DX2                !
 ! D82   D(22,16,18,37)       -128.2307         estimate D2E/DX2                !
 ! D83   D(22,16,18,39)        175.8326         estimate D2E/DX2                !
 ! D84   D(11,16,20,23)        -82.6096         estimate D2E/DX2                !
 ! D85   D(11,16,20,24)        161.064          estimate D2E/DX2                !
 ! D86   D(11,16,20,25)         36.8932         estimate D2E/DX2                !
 ! D87   D(18,16,20,23)         23.1713         estimate D2E/DX2                !
 ! D88   D(18,16,20,24)        -93.1551         estimate D2E/DX2                !
 ! D89   D(18,16,20,25)        142.6741         estimate D2E/DX2                !
 ! D90   D(22,16,20,23)        168.2198         estimate D2E/DX2                !
 ! D91   D(22,16,20,24)         51.8934         estimate D2E/DX2                !
 ! D92   D(22,16,20,25)        -72.2774         estimate D2E/DX2                !
 ! D93   D(11,16,22,26)         54.0349         estimate D2E/DX2                !
 ! D94   D(11,16,22,27)        -64.9292         estimate D2E/DX2                !
 ! D95   D(11,16,22,28)        172.324          estimate D2E/DX2                !
 ! D96   D(18,16,22,26)        -49.816          estimate D2E/DX2                !
 ! D97   D(18,16,22,27)       -168.7801         estimate D2E/DX2                !
 ! D98   D(18,16,22,28)         68.4731         estimate D2E/DX2                !
 ! D99   D(20,16,22,26)        162.4897         estimate D2E/DX2                !
 ! D100  D(20,16,22,27)         43.5256         estimate D2E/DX2                !
 ! D101  D(20,16,22,28)        -79.2212         estimate D2E/DX2                !
 ! D102  D(1,18,37,38)        -177.2382         estimate D2E/DX2                !
 ! D103  D(16,18,37,38)         85.4382         estimate D2E/DX2                !
 ! D104  D(29,18,37,38)        -15.5876         estimate D2E/DX2                !
 ! D105  D(39,18,37,38)        174.7007         estimate D2E/DX2                !
 ! D106  D(1,18,39,40)         138.8077         estimate D2E/DX2                !
 ! D107  D(16,18,39,40)         55.4308         estimate D2E/DX2                !
 ! D108  D(29,18,39,40)        -75.0395         estimate D2E/DX2                !
 ! D109  D(37,18,39,40)        -45.0534         estimate D2E/DX2                !
 ! D110  D(12,19,32,44)        178.5396         estimate D2E/DX2                !
 ! D111  D(12,19,32,45)         59.9581         estimate D2E/DX2                !
 ! D112  D(12,19,32,46)        -62.9008         estimate D2E/DX2                !
 ! D113  D(31,19,32,44)         56.8928         estimate D2E/DX2                !
 ! D114  D(31,19,32,45)        -61.6887         estimate D2E/DX2                !
 ! D115  D(31,19,32,46)        175.4524         estimate D2E/DX2                !
 ! D116  D(33,19,32,44)        -58.6514         estimate D2E/DX2                !
 ! D117  D(33,19,32,45)       -177.2329         estimate D2E/DX2                !
 ! D118  D(33,19,32,46)         59.9082         estimate D2E/DX2                !
 ! D119  D(16,20,23,47)       -179.971          estimate D2E/DX2                !
 ! D120  D(16,20,23,48)         60.8661         estimate D2E/DX2                !
 ! D121  D(16,20,23,49)        -60.2885         estimate D2E/DX2                !
 ! D122  D(24,20,23,47)        -62.2628         estimate D2E/DX2                !
 ! D123  D(24,20,23,48)        178.5743         estimate D2E/DX2                !
 ! D124  D(24,20,23,49)         57.4197         estimate D2E/DX2                !
 ! D125  D(25,20,23,47)         56.9971         estimate D2E/DX2                !
 ! D126  D(25,20,23,48)        -62.1659         estimate D2E/DX2                !
 ! D127  D(25,20,23,49)        176.6796         estimate D2E/DX2                !
 ! D128  D(16,20,24,50)        168.1005         estimate D2E/DX2                !
 ! D129  D(16,20,24,51)         49.7698         estimate D2E/DX2                !
 ! D130  D(16,20,24,52)        -72.9497         estimate D2E/DX2                !
 ! D131  D(23,20,24,50)         52.0147         estimate D2E/DX2                !
 ! D132  D(23,20,24,51)        -66.316          estimate D2E/DX2                !
 ! D133  D(23,20,24,52)        170.9645         estimate D2E/DX2                !
 ! D134  D(25,20,24,50)        -65.7996         estimate D2E/DX2                !
 ! D135  D(25,20,24,51)        175.8697         estimate D2E/DX2                !
 ! D136  D(25,20,24,52)         53.1502         estimate D2E/DX2                !
 ! D137  D(16,20,25,53)       -179.3051         estimate D2E/DX2                !
 ! D138  D(16,20,25,54)         61.2703         estimate D2E/DX2                !
 ! D139  D(16,20,25,55)        -61.928          estimate D2E/DX2                !
 ! D140  D(23,20,25,53)        -60.4125         estimate D2E/DX2                !
 ! D141  D(23,20,25,54)       -179.8371         estimate D2E/DX2                !
 ! D142  D(23,20,25,55)         56.9646         estimate D2E/DX2                !
 ! D143  D(24,20,25,53)         56.976          estimate D2E/DX2                !
 ! D144  D(24,20,25,54)        -62.4485         estimate D2E/DX2                !
 ! D145  D(24,20,25,55)        174.3532         estimate D2E/DX2                !
 ! D146  D(12,21,35,41)         44.5562         estimate D2E/DX2                !
 ! D147  D(12,21,35,42)        -75.8468         estimate D2E/DX2                !
 ! D148  D(12,21,35,43)        164.8973         estimate D2E/DX2                !
 ! D149  D(34,21,35,41)        -74.0685         estimate D2E/DX2                !
 ! D150  D(34,21,35,42)        165.5285         estimate D2E/DX2                !
 ! D151  D(34,21,35,43)         46.2726         estimate D2E/DX2                !
 ! D152  D(36,21,35,41)        168.1233         estimate D2E/DX2                !
 ! D153  D(36,21,35,42)         47.7203         estimate D2E/DX2                !
 ! D154  D(36,21,35,43)        -71.5355         estimate D2E/DX2                !
 ! D155  D(16,22,26,62)        173.9757         estimate D2E/DX2                !
 ! D156  D(16,22,26,63)         54.6568         estimate D2E/DX2                !
 ! D157  D(16,22,26,64)        -67.6964         estimate D2E/DX2                !
 ! D158  D(27,22,26,62)        -63.466          estimate D2E/DX2                !
 ! D159  D(27,22,26,63)        177.2152         estimate D2E/DX2                !
 ! D160  D(27,22,26,64)         54.862          estimate D2E/DX2                !
 ! D161  D(28,22,26,62)         54.5369         estimate D2E/DX2                !
 ! D162  D(28,22,26,63)        -64.782          estimate D2E/DX2                !
 ! D163  D(28,22,26,64)        172.8648         estimate D2E/DX2                !
 ! D164  D(16,22,27,56)        -68.8694         estimate D2E/DX2                !
 ! D165  D(16,22,27,57)        172.6722         estimate D2E/DX2                !
 ! D166  D(16,22,27,58)         54.2442         estimate D2E/DX2                !
 ! D167  D(26,22,27,56)        172.1581         estimate D2E/DX2                !
 ! D168  D(26,22,27,57)         53.6996         estimate D2E/DX2                !
 ! D169  D(26,22,27,58)        -64.7284         estimate D2E/DX2                !
 ! D170  D(28,22,27,56)         54.5394         estimate D2E/DX2                !
 ! D171  D(28,22,27,57)        -63.919          estimate D2E/DX2                !
 ! D172  D(28,22,27,58)        177.6529         estimate D2E/DX2                !
 ! D173  D(16,22,28,59)         67.8976         estimate D2E/DX2                !
 ! D174  D(16,22,28,60)        -54.555          estimate D2E/DX2                !
 ! D175  D(16,22,28,61)       -173.3            estimate D2E/DX2                !
 ! D176  D(26,22,28,59)       -174.3504         estimate D2E/DX2                !
 ! D177  D(26,22,28,60)         63.1971         estimate D2E/DX2                !
 ! D178  D(26,22,28,61)        -55.5479         estimate D2E/DX2                !
 ! D179  D(27,22,28,59)        -57.2936         estimate D2E/DX2                !
 ! D180  D(27,22,28,60)       -179.7461         estimate D2E/DX2                !
 ! D181  D(27,22,28,61)         61.5088         estimate D2E/DX2                !
 --------------------------------------------------------------------------------
 Trust Radius=3.00D-01 FncErr=1.00D-07 GrdErr=1.00D-06 EigMax=2.50D+02 EigMin=1.00D-04
 Number of steps in this run=    382 maximum allowed number of steps=    384.
 GradGradGradGradGradGradGradGradGradGradGradGradGradGradGradGradGradGrad

 Symmetry turned off by external request.
 Stoichiometry    C20H37N2O3PRu(3)
 Framework group  C1[X(C20H37N2O3PRu)]
 Deg. of freedom   186
 Full point group                 C1      NOp   1
                          Input orientation:                          
 ---------------------------------------------------------------------
 Center     Atomic      Atomic             Coordinates (Angstroms)
 Number     Number       Type             X           Y           Z
 ---------------------------------------------------------------------
      1          7           0       -0.712129    1.395533   -0.072197
      2          6           0       -1.911355    1.889161    0.291707
      3          6           0        0.191603    2.174701   -0.699516
      4          6           0       -2.233579    3.224274    0.089004
      5          6           0       -1.289609    4.059007   -0.506483
      6          6           0       -0.070729    3.527225   -0.913296
      7          6           0       -2.822138    0.878567    0.919120
      8          1           0       -3.212531    3.599001    0.389749
      9          1           0       -1.512232    5.114591   -0.671377
     10          1           0        0.675713    4.149069   -1.408756
     11          6           0        1.435606    1.490904   -1.173070
     12          7           0       -2.734207   -0.413104    0.218628
     13          1           0       -3.856955    1.262010    0.957350
     14          1           0       -2.493669    0.711895    1.958463
     15          1           0        1.218738    1.089615   -2.179085
     16         15           0        1.778995   -0.055197   -0.172978
     17          1           0        2.280658    2.189983   -1.251727
     18         44           0       -0.412800   -0.646658    0.093409
     19          6           0       -3.300760   -0.315403   -1.145312
     20          6           0        3.012662   -0.997934   -1.285730
     21          6           0       -3.400256   -1.450212    1.035340
     22          6           0        2.702154    0.605262    1.364310
     23          6           0        2.189674   -1.752147   -2.332113
     24          6           0        3.762524   -2.038752   -0.453047
     25          6           0        4.000752   -0.088425   -2.019934
     26          6           0        1.832605    1.699681    1.994724
     27          6           0        4.061419    1.224621    1.035987
     28          6           0        2.895638   -0.514877    2.391080
     29          6           0       -0.367785   -0.828103    1.935725
     30          8           0       -0.432380   -1.085176    3.074912
     31          1           0       -2.758877    0.494512   -1.653087
     32          6           0       -4.802197   -0.092887   -1.230664
     33          1           0       -2.979117   -1.217542   -1.678082
     34          1           0       -2.847120   -1.501400    1.984515
     35          6           0       -3.406906   -2.810721    0.369034
     36          1           0       -4.429089   -1.121229    1.285080
     37          8           0       -0.446301   -2.479537   -0.662352
     38          1           0       -0.186815   -3.159404    0.012295
     39          8           0       -0.750040   -1.063959   -1.779987
     40          1           0       -0.139176   -1.710415   -2.119386
     41          1           0       -2.409394   -3.014138   -0.055755
     42          1           0       -4.150230   -2.873159   -0.439727
     43          1           0       -3.660458   -3.579957    1.113474
     44          1           0       -5.084188   -0.013440   -2.291331
     45          1           0       -5.133609    0.836514   -0.740408
     46          1           0       -5.380271   -0.925268   -0.802193
     47          1           0        2.880832   -2.306770   -2.988878
     48          1           0        1.596401   -1.072647   -2.961194
     49          1           0        1.504709   -2.463690   -1.845576
     50          1           0        4.306167   -2.713005   -1.135390
     51          1           0        3.069060   -2.655185    0.139323
     52          1           0        4.503403   -1.591282    0.223334
     53          1           0        4.658143   -0.719640   -2.641594
     54          1           0        4.643436    0.496977   -1.352133
     55          1           0        3.487239    0.604169   -2.702881
     56          1           0        4.796808    0.479076    0.706106
     57          1           0        4.463071    1.694768    1.949168
     58          1           0        3.993101    2.011528    0.269629
     59          1           0        3.590739   -1.288102    2.043118
     60          1           0        1.950406   -0.999295    2.661065
     61          1           0        3.319712   -0.079134    3.311300
     62          1           0        2.299838    2.014219    2.942223
     63          1           0        0.817387    1.346455    2.216335
     64          1           0        1.759196    2.590973    1.354151
 ---------------------------------------------------------------------
 Rotational constants (GHZ):           0.2489963           0.1529441           0.1323468
 General basis read from cards:  (5D, 7F)
 ======================================================================================================
                                       Pseudopotential Parameters
 ======================================================================================================
  Center     Atomic      Valence      Angular      Power
  Number     Number     Electrons     Momentum     of R      Exponent        Coefficient   SO-Coeffient
 ======================================================================================================
    1          7
                                   No pseudopotential on this center.
    2          6
                                   No pseudopotential on this center.
    3          6
                                   No pseudopotential on this center.
    4          6
                                   No pseudopotential on this center.
    5          6
                                   No pseudopotential on this center.
    6          6
                                   No pseudopotential on this center.
    7          6
                                   No pseudopotential on this center.
    8          1
                                   No pseudopotential on this center.
    9          1
                                   No pseudopotential on this center.
   10          1
                                   No pseudopotential on this center.
   11          6
                                   No pseudopotential on this center.
   12          7
                                   No pseudopotential on this center.
   13          1
                                   No pseudopotential on this center.
   14          1
                                   No pseudopotential on this center.
   15          1
                                   No pseudopotential on this center.
   16         15
                                   No pseudopotential on this center.
   17          1
                                   No pseudopotential on this center.
   18         44           16
                                      G and up 
                                                     2        1.0000000        0.00000000    0.00000000
                                      S - G
                                                     2       11.1052690      209.82297100    0.00000000
                                                     2        5.4147450       30.65472600    0.00000000
                                      P - G
                                                     2        9.7712710      146.33618200    0.00000000
                                                     2        5.0739910       24.12787700    0.00000000
                                      D - G
                                                     2        7.6714230       67.51589700    0.00000000
                                                     2        4.1365650        9.87010400    0.00000000
                                      F - G
                                                     2       11.3600000      -28.34061600    0.00000000
                                                     2        5.6800000       -4.94462900    0.00000000
   19          6
                                   No pseudopotential on this center.
   20          6
                                   No pseudopotential on this center.
   21          6
                                   No pseudopotential on this center.
   22          6
                                   No pseudopotential on this center.
   23          6
                                   No pseudopotential on this center.
   24          6
                                   No pseudopotential on this center.
   25          6
                                   No pseudopotential on this center.
   26          6
                                   No pseudopotential on this center.
   27          6
                                   No pseudopotential on this center.
   28          6
                                   No pseudopotential on this center.
   29          6
                                   No pseudopotential on this center.
   30          8
                                   No pseudopotential on this center.
   31          1
                                   No pseudopotential on this center.
   32          6
                                   No pseudopotential on this center.
   33          1
                                   No pseudopotential on this center.
   34          1
                                   No pseudopotential on this center.
   35          6
                                   No pseudopotential on this center.
   36          1
                                   No pseudopotential on this center.
   37          8
                                   No pseudopotential on this center.
   38          1
                                   No pseudopotential on this center.
   39          8
                                   No pseudopotential on this center.
   40          1
                                   No pseudopotential on this center.
   41          1
                                   No pseudopotential on this center.
   42          1
                                   No pseudopotential on this center.
   43          1
                                   No pseudopotential on this center.
   44          1
                                   No pseudopotential on this center.
   45          1
                                   No pseudopotential on this center.
   46          1
                                   No pseudopotential on this center.
   47          1
                                   No pseudopotential on this center.
   48          1
                                   No pseudopotential on this center.
   49          1
                                   No pseudopotential on this center.
   50          1
                                   No pseudopotential on this center.
   51          1
                                   No pseudopotential on this center.
   52          1
                                   No pseudopotential on this center.
   53          1
                                   No pseudopotential on this center.
   54          1
                                   No pseudopotential on this center.
   55          1
                                   No pseudopotential on this center.
   56          1
                                   No pseudopotential on this center.
   57          1
                                   No pseudopotential on this center.
   58          1
                                   No pseudopotential on this center.
   59          1
                                   No pseudopotential on this center.
   60          1
                                   No pseudopotential on this center.
   61          1
                                   No pseudopotential on this center.
   62          1
                                   No pseudopotential on this center.
   63          1
                                   No pseudopotential on this center.
   64          1
                                   No pseudopotential on this center.
 ======================================================================================================
   589 basis functions,  1220 primitive gaussians,   618 cartesian basis functions
   114 alpha electrons      112 beta electrons
       nuclear repulsion energy      3499.3083048973 Hartrees.
 NAtoms=   64 NActive=   64 NUniq=   64 SFac= 1.00D+00 NAtFMM=   60 NAOKFM=T Big=T
 Integral buffers will be    131072 words long.
 Raffenetti 2 integral format.
 Two-electron integral symmetry is turned off.
 Nuclear repulsion after empirical dispersion term =     3499.2116285332 Hartrees.
 One-electron integrals computed using PRISM.
   1 Symmetry operations used in ECPInt.
 ECPInt:  NShTT=   40186 NPrTT=  280000 LenC2=   37312 LenP2D=  142291.
 LDataN:  DoStor=T MaxTD1= 6 Len=  172
 Number of processors reduced to  16 by ecpmxn.
 NBasis=   589 RedAO= T EigKep=  4.42D-04  NBF=   589
 NBsUse=   589 1.00D-06 EigRej= -1.00D+00 NBFU=   589
 Defaulting to unpruned grid for atomic number  44.
 ExpMin= 1.60D-02 ExpMax= 9.48D+04 ExpMxC= 3.24D+03 IAcc=3 IRadAn=         5 AccDes= 0.00D+00
 Harris functional with IExCor= 1009 and IRadAn=       5 diagonalized for initial guess.
 HarFok:  IExCor= 1009 AccDes= 0.00D+00 IRadAn=         5 IDoV= 1 UseB2=F ITyADJ=14
 ICtDFT=  3500011 ScaDFX=  1.000000  1.000000  1.000000  1.000000
 Defaulting to unpruned grid for atomic number  44.
 FoFCou: FMM=F IPFlag=           0 FMFlag=      100000 FMFlg1=        2001
         NFxFlg=           0 DoJE=T BraDBF=F KetDBF=T FulRan=T
         wScrn=  0.000000 ICntrl=       500 IOpCl=  0 I1Cent=   200000004 NGrid=           0
         NMat0=    1 NMatS0=      1 NMatT0=    0 NMatD0=    1 NMtDS0=    0 NMtDT0=    0
 Symmetry not used in FoFCou.
 Initial guess <Sx>= 0.0000 <Sy>= 0.0000 <Sz>= 1.0000 <S**2>= 2.0000 S= 1.0000
 Requested convergence on RMS density matrix=1.00D-08 within 128 cycles.
 Requested convergence on MAX density matrix=1.00D-06.
 Requested convergence on             energy=1.00D-06.
 No special actions if energy rises.
 Defaulting to unpruned grid for atomic number  44.
 Defaulting to unpruned grid for atomic number  44.
 Defaulting to unpruned grid for atomic number  44.
 Defaulting to unpruned grid for atomic number  44.
 Defaulting to unpruned grid for atomic number  44.
 Defaulting to unpruned grid for atomic number  44.
 Defaulting to unpruned grid for atomic number  44.
 Defaulting to unpruned grid for atomic number  44.
 Defaulting to unpruned grid for atomic number  44.
 Defaulting to unpruned grid for atomic number  44.
 Defaulting to unpruned grid for atomic number  44.
 Defaulting to unpruned grid for atomic number  44.
 Defaulting to unpruned grid for atomic number  44.
 Defaulting to unpruned grid for atomic number  44.
 Defaulting to unpruned grid for atomic number  44.
 Defaulting to unpruned grid for atomic number  44.
 Defaulting to unpruned grid for atomic number  44.
 Defaulting to unpruned grid for atomic number  44.
 Defaulting to unpruned grid for atomic number  44.
 Defaulting to unpruned grid for atomic number  44.
 EnCoef did   100 forward-backward iterations
 Rare condition: small coef for last iteration:  0.000D+00
 Restarting incremental Fock formation.
 SCF Done:  E(UPBE1PBE) =  -1554.48524575     A.U. after   40 cycles
            NFock= 40  Conv=0.51D-08     -V/T= 2.0462
 <Sx>= 0.0000 <Sy>= 0.0000 <Sz>= 1.0000 <S**2>= 2.0239 S= 1.0080
 <L.S>= 0.000000000000E+00
 Annihilation of the first spin contaminant:
 S**2 before annihilation     2.0239,   after     2.0003

 **********************************************************************

            Population analysis using the SCF density.

 **********************************************************************

 Alpha  occ. eigenvalues --  -77.27032 -19.27182 -19.23293 -19.18133 -14.43853
 Alpha  occ. eigenvalues --  -14.37875 -10.32916 -10.27814 -10.27057 -10.26097
 Alpha  occ. eigenvalues --  -10.25735 -10.24806 -10.24619 -10.24531 -10.24421
 Alpha  occ. eigenvalues --  -10.24247 -10.24054 -10.23868 -10.23464 -10.23101
 Alpha  occ. eigenvalues --  -10.22568 -10.22394 -10.21474 -10.20507 -10.20194
 Alpha  occ. eigenvalues --  -10.18469  -6.65001  -4.78603  -4.78575  -4.78355
 Alpha  occ. eigenvalues --   -3.07298  -1.91812  -1.90003  -1.89374  -1.13290
 Alpha  occ. eigenvalues --   -1.05126  -0.98042  -0.95264  -0.93885  -0.86902
 Alpha  occ. eigenvalues --   -0.84612  -0.81133  -0.78992  -0.78059  -0.76780
 Alpha  occ. eigenvalues --   -0.73245  -0.72624  -0.72263  -0.71562  -0.70794
 Alpha  occ. eigenvalues --   -0.68895  -0.65974  -0.65112  -0.60604  -0.60209
 Alpha  occ. eigenvalues --   -0.57963  -0.57909  -0.57296  -0.54506  -0.52266
 Alpha  occ. eigenvalues --   -0.51542  -0.51193  -0.50595  -0.50131  -0.49434
 Alpha  occ. eigenvalues --   -0.48653  -0.47783  -0.47107  -0.46767  -0.46192
 Alpha  occ. eigenvalues --   -0.46003  -0.45474  -0.45291  -0.44795  -0.44236
 Alpha  occ. eigenvalues --   -0.43839  -0.43436  -0.42756  -0.42046  -0.41485
 Alpha  occ. eigenvalues --   -0.41263  -0.40954  -0.40329  -0.39967  -0.39949
 Alpha  occ. eigenvalues --   -0.39565  -0.39149  -0.39067  -0.38061  -0.37912
 Alpha  occ. eigenvalues --   -0.37650  -0.37291  -0.36802  -0.36560  -0.36031
 Alpha  occ. eigenvalues --   -0.35237  -0.35110  -0.34801  -0.34395  -0.33962
 Alpha  occ. eigenvalues --   -0.33836  -0.33355  -0.33154  -0.31507  -0.30524
 Alpha  occ. eigenvalues --   -0.29646  -0.29121  -0.28645  -0.27661  -0.25700
 Alpha  occ. eigenvalues --   -0.23794  -0.23323  -0.21518  -0.07073
 Alpha virt. eigenvalues --   -0.02012  -0.00385   0.01131   0.01416   0.01880
 Alpha virt. eigenvalues --    0.02020   0.02849   0.03901   0.04015   0.05256
 Alpha virt. eigenvalues --    0.07066   0.07469   0.08187   0.08636   0.09031
 Alpha virt. eigenvalues --    0.09579   0.10140   0.10535   0.10911   0.11370
 Alpha virt. eigenvalues --    0.11720   0.12001   0.12483   0.12925   0.13146
 Alpha virt. eigenvalues --    0.13772   0.14217   0.14418   0.14753   0.14976
 Alpha virt. eigenvalues --    0.15419   0.15640   0.15957   0.16553   0.16778
 Alpha virt. eigenvalues --    0.17244   0.17378   0.17732   0.17811   0.18416
 Alpha virt. eigenvalues --    0.18478   0.18923   0.19274   0.19566   0.20290
 Alpha virt. eigenvalues --    0.20422   0.20502   0.21043   0.21370   0.21573
 Alpha virt. eigenvalues --    0.21790   0.22198   0.22459   0.22587   0.23062
 Alpha virt. eigenvalues --    0.23865   0.24070   0.24559   0.25175   0.25360
 Alpha virt. eigenvalues --    0.26099   0.26611   0.26919   0.28436   0.28859
 Alpha virt. eigenvalues --    0.29516   0.30503   0.31684   0.32122   0.33574
 Alpha virt. eigenvalues --    0.34206   0.34743   0.34910   0.35858   0.36218
 Alpha virt. eigenvalues --    0.38113   0.38269   0.39272   0.40505   0.41367
 Alpha virt. eigenvalues --    0.42528   0.42993   0.43318   0.43866   0.44622
 Alpha virt. eigenvalues --    0.45473   0.46589   0.46783   0.47866   0.48629
 Alpha virt. eigenvalues --    0.49049   0.50367   0.50590   0.51089   0.51933
 Alpha virt. eigenvalues --    0.52776   0.53094   0.53464   0.53695   0.54404
 Alpha virt. eigenvalues --    0.54806   0.54900   0.55673   0.56455   0.57222
 Alpha virt. eigenvalues --    0.57647   0.57843   0.58525   0.58976   0.59552
 Alpha virt. eigenvalues --    0.59910   0.60163   0.61086   0.61328   0.61549
 Alpha virt. eigenvalues --    0.62312   0.62779   0.63428   0.63513   0.63830
 Alpha virt. eigenvalues --    0.63933   0.64217   0.64540   0.64894   0.65103
 Alpha virt. eigenvalues --    0.65482   0.65862   0.65993   0.66183   0.66265
 Alpha virt. eigenvalues --    0.66717   0.66901   0.67340   0.67674   0.68043
 Alpha virt. eigenvalues --    0.68603   0.68967   0.69524   0.69762   0.70131
 Alpha virt. eigenvalues --    0.70221   0.70884   0.71003   0.71780   0.72087
 Alpha virt. eigenvalues --    0.72648   0.72751   0.73041   0.73446   0.74045
 Alpha virt. eigenvalues --    0.74505   0.74903   0.75270   0.75551   0.75892
 Alpha virt. eigenvalues --    0.76787   0.76882   0.77228   0.77526   0.77690
 Alpha virt. eigenvalues --    0.78282   0.78908   0.79364   0.79550   0.79716
 Alpha virt. eigenvalues --    0.81059   0.81575   0.82331   0.83356   0.83756
 Alpha virt. eigenvalues --    0.84226   0.84390   0.85340   0.85638   0.86122
 Alpha virt. eigenvalues --    0.86841   0.87822   0.88572   0.89484   0.90236
 Alpha virt. eigenvalues --    0.90884   0.91309   0.91378   0.91826   0.93573
 Alpha virt. eigenvalues --    0.94272   0.94672   0.95535   0.96529   0.97203
 Alpha virt. eigenvalues --    0.97623   0.98627   0.99329   0.99456   1.00657
 Alpha virt. eigenvalues --    1.01316   1.02609   1.02882   1.02961   1.03225
 Alpha virt. eigenvalues --    1.04062   1.05538   1.05889   1.06082   1.08157
 Alpha virt. eigenvalues --    1.08763   1.09968   1.11249   1.11651   1.13177
 Alpha virt. eigenvalues --    1.13947   1.14747   1.15499   1.16561   1.17394
 Alpha virt. eigenvalues --    1.18108   1.18529   1.19163   1.20408   1.21499
 Alpha virt. eigenvalues --    1.22032   1.22999   1.24581   1.25100   1.25164
 Alpha virt. eigenvalues --    1.26693   1.27167   1.27479   1.28447   1.29520
 Alpha virt. eigenvalues --    1.30156   1.30660   1.31810   1.32686   1.33668
 Alpha virt. eigenvalues --    1.33886   1.34012   1.35121   1.35472   1.36471
 Alpha virt. eigenvalues --    1.36857   1.37435   1.38003   1.39012   1.39577
 Alpha virt. eigenvalues --    1.40086   1.40613   1.41915   1.42270   1.43059
 Alpha virt. eigenvalues --    1.43198   1.43794   1.44392   1.44787   1.44954
 Alpha virt. eigenvalues --    1.45506   1.46304   1.46708   1.47638   1.48680
 Alpha virt. eigenvalues --    1.48962   1.49128   1.49892   1.51019   1.51201
 Alpha virt. eigenvalues --    1.51539   1.52300   1.53079   1.53527   1.53636
 Alpha virt. eigenvalues --    1.55201   1.55414   1.56811   1.57091   1.57740
 Alpha virt. eigenvalues --    1.58726   1.59075   1.60185   1.60902   1.61198
 Alpha virt. eigenvalues --    1.62095   1.62388   1.62956   1.63913   1.64714
 Alpha virt. eigenvalues --    1.65288   1.65641   1.66085   1.66619   1.67058
 Alpha virt. eigenvalues --    1.67372   1.67747   1.67983   1.68495   1.68786
 Alpha virt. eigenvalues --    1.69113   1.69644   1.70155   1.70274   1.71001
 Alpha virt. eigenvalues --    1.71466   1.71695   1.72189   1.72371   1.72771
 Alpha virt. eigenvalues --    1.73257   1.73745   1.74053   1.75028   1.75093
 Alpha virt. eigenvalues --    1.75477   1.75980   1.76448   1.77062   1.77167
 Alpha virt. eigenvalues --    1.77840   1.78577   1.79141   1.79396   1.80386
 Alpha virt. eigenvalues --    1.81208   1.81716   1.82273   1.82539   1.83289
 Alpha virt. eigenvalues --    1.83646   1.84030   1.84521   1.84787   1.85550
 Alpha virt. eigenvalues --    1.86649   1.87382   1.87825   1.88056   1.88463
 Alpha virt. eigenvalues --    1.89306   1.90030   1.90180   1.90813   1.91037
 Alpha virt. eigenvalues --    1.91856   1.92587   1.93057   1.93587   1.94988
 Alpha virt. eigenvalues --    1.95275   1.96299   1.97509   1.98096   1.98571
 Alpha virt. eigenvalues --    1.99233   1.99804   2.00002   2.00400   2.01079
 Alpha virt. eigenvalues --    2.02069   2.02694   2.03070   2.03909   2.04233
 Alpha virt. eigenvalues --    2.04738   2.05541   2.06271   2.06881   2.07037
 Alpha virt. eigenvalues --    2.08151   2.08426   2.08721   2.09532   2.09939
 Alpha virt. eigenvalues --    2.10927   2.11390   2.12407   2.13511   2.14126
 Alpha virt. eigenvalues --    2.16107   2.16868   2.16936   2.18654   2.19686
 Alpha virt. eigenvalues --    2.20549   2.21622   2.21941   2.22805   2.23422
 Alpha virt. eigenvalues --    2.24338   2.24864   2.25788   2.25977   2.26363
 Alpha virt. eigenvalues --    2.27281   2.27960   2.28673   2.29335   2.30327
 Alpha virt. eigenvalues --    2.31288   2.32897   2.35276   2.35720   2.39194
 Alpha virt. eigenvalues --    2.39359   2.40227   2.40851   2.41742   2.42626
 Alpha virt. eigenvalues --    2.43031   2.43822   2.44423   2.45110   2.46186
 Alpha virt. eigenvalues --    2.46359   2.46748   2.46831   2.46959   2.47744
 Alpha virt. eigenvalues --    2.48276   2.48550   2.49359   2.50085   2.50760
 Alpha virt. eigenvalues --    2.51348   2.51556   2.52445   2.53047   2.53824
 Alpha virt. eigenvalues --    2.54430   2.54759   2.55308   2.55915   2.57058
 Alpha virt. eigenvalues --    2.57586   2.58388   2.58940   2.60371   2.61023
 Alpha virt. eigenvalues --    2.62100   2.62551   2.63304   2.63749   2.64282
 Alpha virt. eigenvalues --    2.65032   2.66832   2.68325   2.68612   2.70101
 Alpha virt. eigenvalues --    2.70541   2.72887   2.75497   2.76960   2.77373
 Alpha virt. eigenvalues --    2.78094   2.79395   2.80507   2.82230   2.83120
 Alpha virt. eigenvalues --    2.84895   2.86676   2.86921   2.88171   2.91988
 Alpha virt. eigenvalues --    2.98927   3.03416   3.04328   3.06090   3.11184
 Alpha virt. eigenvalues --    3.12185   3.17156   3.54969   3.57302   3.75177
 Alpha virt. eigenvalues --    3.88791  34.94466  35.01515  35.05182  45.97326
  Beta  occ. eigenvalues --  -77.27026 -19.27102 -19.21598 -19.17745 -14.43776
  Beta  occ. eigenvalues --  -14.37222 -10.32880 -10.27790 -10.27055 -10.26095
  Beta  occ. eigenvalues --  -10.25769 -10.24804 -10.24645 -10.24421 -10.24280
  Beta  occ. eigenvalues --  -10.24243 -10.24054 -10.23866 -10.23109 -10.23098
  Beta  occ. eigenvalues --  -10.22565 -10.22386 -10.21470 -10.20682 -10.20287
  Beta  occ. eigenvalues --  -10.17778  -6.64994  -4.78593  -4.78576  -4.78335
  Beta  occ. eigenvalues --   -3.06375  -1.90569  -1.88973  -1.88501  -1.13143
  Beta  occ. eigenvalues --   -1.01768  -0.97720  -0.94390  -0.92090  -0.86857
  Beta  occ. eigenvalues --   -0.84594  -0.80718  -0.78224  -0.77998  -0.76618
  Beta  occ. eigenvalues --   -0.73111  -0.72553  -0.72198  -0.71556  -0.70775
  Beta  occ. eigenvalues --   -0.68759  -0.65856  -0.65036  -0.60307  -0.59384
  Beta  occ. eigenvalues --   -0.57920  -0.57640  -0.57022  -0.54371  -0.51813
  Beta  occ. eigenvalues --   -0.50889  -0.50500  -0.50172  -0.49464  -0.48469
  Beta  occ. eigenvalues --   -0.47899  -0.47450  -0.46968  -0.46618  -0.46073
  Beta  occ. eigenvalues --   -0.45652  -0.45279  -0.45042  -0.44474  -0.43967
  Beta  occ. eigenvalues --   -0.43570  -0.43011  -0.42541  -0.41959  -0.41285
  Beta  occ. eigenvalues --   -0.41099  -0.40687  -0.39955  -0.39934  -0.39615
  Beta  occ. eigenvalues --   -0.39304  -0.39056  -0.38927  -0.37995  -0.37544
  Beta  occ. eigenvalues --   -0.37262  -0.37123  -0.36668  -0.35680  -0.35388
  Beta  occ. eigenvalues --   -0.35142  -0.34923  -0.34696  -0.34001  -0.33626
  Beta  occ. eigenvalues --   -0.33611  -0.33083  -0.32543  -0.31222  -0.29191
  Beta  occ. eigenvalues --   -0.28377  -0.27645  -0.26335  -0.25579  -0.22357
  Beta  occ. eigenvalues --   -0.21750  -0.20119
  Beta virt. eigenvalues --   -0.12491  -0.01623  -0.00164   0.01288   0.01623
  Beta virt. eigenvalues --    0.02309   0.02464   0.02661   0.03178   0.04196
  Beta virt. eigenvalues --    0.04693   0.05424   0.07359   0.07555   0.08262
  Beta virt. eigenvalues --    0.08685   0.09078   0.09659   0.10307   0.10643
  Beta virt. eigenvalues --    0.11097   0.11528   0.11904   0.12117   0.12559
  Beta virt. eigenvalues --    0.13068   0.13311   0.13879   0.14348   0.14661
  Beta virt. eigenvalues --    0.14846   0.15064   0.15577   0.15925   0.16158
  Beta virt. eigenvalues --    0.16820   0.16942   0.17372   0.17533   0.17948
  Beta virt. eigenvalues --    0.18045   0.18542   0.19054   0.19266   0.19398
  Beta virt. eigenvalues --    0.19733   0.20354   0.20521   0.20852   0.21113
  Beta virt. eigenvalues --    0.21488   0.21723   0.22071   0.22371   0.22558
  Beta virt. eigenvalues --    0.22863   0.23139   0.23968   0.24215   0.24776
  Beta virt. eigenvalues --    0.25300   0.25563   0.26330   0.26859   0.27050
  Beta virt. eigenvalues --    0.28630   0.29048   0.29678   0.30788   0.31942
  Beta virt. eigenvalues --    0.32305   0.33867   0.34425   0.35057   0.35122
  Beta virt. eigenvalues --    0.36046   0.36601   0.38310   0.38550   0.39426
  Beta virt. eigenvalues --    0.40611   0.41457   0.42606   0.43080   0.43408
  Beta virt. eigenvalues --    0.44070   0.44813   0.45611   0.46844   0.47064
  Beta virt. eigenvalues --    0.47935   0.48873   0.49195   0.50471   0.50825
  Beta virt. eigenvalues --    0.51334   0.52117   0.52876   0.53322   0.53570
  Beta virt. eigenvalues --    0.53982   0.54665   0.55056   0.55351   0.56267
  Beta virt. eigenvalues --    0.56931   0.57404   0.57767   0.58173   0.58690
  Beta virt. eigenvalues --    0.59186   0.59726   0.59951   0.60330   0.61206
  Beta virt. eigenvalues --    0.61479   0.61643   0.62441   0.62923   0.63532
  Beta virt. eigenvalues --    0.63640   0.64049   0.64154   0.64382   0.64619
  Beta virt. eigenvalues --    0.65055   0.65200   0.65610   0.65989   0.66344
  Beta virt. eigenvalues --    0.66374   0.66454   0.66965   0.67140   0.67478
  Beta virt. eigenvalues --    0.67809   0.68202   0.68727   0.69103   0.69687
  Beta virt. eigenvalues --    0.69918   0.70294   0.70426   0.70956   0.71171
  Beta virt. eigenvalues --    0.71846   0.72159   0.72773   0.72869   0.73217
  Beta virt. eigenvalues --    0.73601   0.74140   0.74765   0.74998   0.75360
  Beta virt. eigenvalues --    0.75660   0.76006   0.76991   0.77147   0.77382
  Beta virt. eigenvalues --    0.77736   0.77920   0.78490   0.79054   0.79608
  Beta virt. eigenvalues --    0.79651   0.79848   0.81134   0.81757   0.82442
  Beta virt. eigenvalues --    0.83581   0.84046   0.84346   0.84550   0.85448
  Beta virt. eigenvalues --    0.85915   0.86249   0.87058   0.87987   0.88701
  Beta virt. eigenvalues --    0.89682   0.90414   0.91003   0.91481   0.91631
  Beta virt. eigenvalues --    0.92053   0.93801   0.94463   0.94906   0.95815
  Beta virt. eigenvalues --    0.96697   0.97517   0.97882   0.99000   0.99720
  Beta virt. eigenvalues --    0.99782   1.00800   1.01615   1.03003   1.03141
  Beta virt. eigenvalues --    1.03518   1.03753   1.04400   1.05940   1.06224
  Beta virt. eigenvalues --    1.06863   1.08514   1.09139   1.10356   1.11582
  Beta virt. eigenvalues --    1.12022   1.13755   1.14504   1.15042   1.15746
  Beta virt. eigenvalues --    1.16840   1.17832   1.18373   1.18762   1.19564
  Beta virt. eigenvalues --    1.20727   1.21809   1.22248   1.23249   1.25072
  Beta virt. eigenvalues --    1.25541   1.25714   1.26942   1.27440   1.27601
  Beta virt. eigenvalues --    1.28615   1.29681   1.30375   1.31257   1.32070
  Beta virt. eigenvalues --    1.32886   1.34009   1.34177   1.34371   1.35302
  Beta virt. eigenvalues --    1.35680   1.36640   1.37204   1.37651   1.38534
  Beta virt. eigenvalues --    1.39259   1.39664   1.40369   1.40842   1.42060
  Beta virt. eigenvalues --    1.42598   1.43210   1.43279   1.43912   1.44440
  Beta virt. eigenvalues --    1.44929   1.45203   1.45649   1.46600   1.46854
  Beta virt. eigenvalues --    1.47832   1.48836   1.49125   1.49329   1.50087
  Beta virt. eigenvalues --    1.51371   1.51438   1.51823   1.52531   1.53247
  Beta virt. eigenvalues --    1.53749   1.53860   1.55398   1.55529   1.57073
  Beta virt. eigenvalues --    1.57327   1.58015   1.58864   1.59250   1.60335
  Beta virt. eigenvalues --    1.61030   1.61354   1.62260   1.62579   1.63089
  Beta virt. eigenvalues --    1.64015   1.64848   1.65527   1.65809   1.66163
  Beta virt. eigenvalues --    1.66680   1.67258   1.67457   1.67892   1.68097
  Beta virt. eigenvalues --    1.68658   1.68899   1.69243   1.69787   1.70244
  Beta virt. eigenvalues --    1.70405   1.71105   1.71546   1.71821   1.72297
  Beta virt. eigenvalues --    1.72671   1.72890   1.73426   1.73862   1.74165
  Beta virt. eigenvalues --    1.75140   1.75187   1.75542   1.76079   1.76586
  Beta virt. eigenvalues --    1.77243   1.77335   1.77908   1.78760   1.79330
  Beta virt. eigenvalues --    1.79531   1.80529   1.81290   1.81849   1.82409
  Beta virt. eigenvalues --    1.82754   1.83376   1.83749   1.84156   1.84596
  Beta virt. eigenvalues --    1.85013   1.85819   1.86803   1.87564   1.87929
  Beta virt. eigenvalues --    1.88184   1.88627   1.89412   1.90129   1.90535
  Beta virt. eigenvalues --    1.90964   1.91109   1.92061   1.92741   1.93226
  Beta virt. eigenvalues --    1.93773   1.95154   1.95459   1.96555   1.97649
  Beta virt. eigenvalues --    1.98215   1.98769   1.99427   1.99982   2.00196
  Beta virt. eigenvalues --    2.00800   2.01422   2.02284   2.02933   2.03265
  Beta virt. eigenvalues --    2.04018   2.04377   2.05198   2.05714   2.06454
  Beta virt. eigenvalues --    2.06977   2.07080   2.08305   2.08757   2.08878
  Beta virt. eigenvalues --    2.09811   2.10133   2.11167   2.11773   2.12789
  Beta virt. eigenvalues --    2.13815   2.14288   2.16294   2.17036   2.17094
  Beta virt. eigenvalues --    2.18858   2.19857   2.20933   2.21831   2.22179
  Beta virt. eigenvalues --    2.22972   2.23773   2.24411   2.25093   2.25906
  Beta virt. eigenvalues --    2.26063   2.26532   2.27404   2.28083   2.28795
  Beta virt. eigenvalues --    2.29422   2.30455   2.31450   2.33268   2.35789
  Beta virt. eigenvalues --    2.36057   2.39252   2.39674   2.40454   2.41023
  Beta virt. eigenvalues --    2.41796   2.42722   2.43273   2.43878   2.44503
  Beta virt. eigenvalues --    2.45266   2.46278   2.46486   2.46947   2.47000
  Beta virt. eigenvalues --    2.47160   2.47811   2.48338   2.48720   2.49622
  Beta virt. eigenvalues --    2.50207   2.50816   2.51433   2.51648   2.52584
  Beta virt. eigenvalues --    2.53152   2.54054   2.54544   2.54883   2.55416
  Beta virt. eigenvalues --    2.56037   2.57185   2.57737   2.58473   2.59248
  Beta virt. eigenvalues --    2.60498   2.61332   2.62405   2.62855   2.63620
  Beta virt. eigenvalues --    2.64052   2.64716   2.65342   2.66996   2.68423
  Beta virt. eigenvalues --    2.68790   2.70320   2.70658   2.73086   2.75709
  Beta virt. eigenvalues --    2.77785   2.78029   2.79278   2.79922   2.81723
  Beta virt. eigenvalues --    2.82912   2.83417   2.85158   2.87020   2.89386
  Beta virt. eigenvalues --    2.90265   2.93315   2.99652   3.04176   3.05183
  Beta virt. eigenvalues --    3.07205   3.11353   3.13091   3.19055   3.55250
  Beta virt. eigenvalues --    3.57418   3.76283   3.90065  34.94657  35.01734
  Beta virt. eigenvalues --   35.05655  45.97578
          Condensed to atoms (all electrons):
          Atomic-Atomic Spin Densities.
 Mulliken charges and spin densities:
               1          2
     1  N   -0.392021   0.257205
     2  C   -0.001318   0.234379
     3  C    0.052754   0.171895
     4  C   -0.053553  -0.121822
     5  C    0.000506   0.466173
     6  C   -0.068507  -0.067348
     7  C    0.108248  -0.009744
     8  H   -0.025799   0.004138
     9  H   -0.028314  -0.024933
    10  H   -0.029843   0.001137
    11  C   -0.096275  -0.016832
    12  N   -0.372153   0.022783
    13  H    0.034839   0.000698
    14  H    0.075689   0.016406
    15  H    0.100580   0.010550
    16  P    0.231616   0.019722
    17  H    0.060112   0.000158
    18  Ru   0.221680   0.257198
    19  C   -0.027905   0.001304
    20  C   -0.474295   0.009256
    21  C   -0.003522   0.000170
    22  C   -0.475080   0.000210
    23  C   -0.033779  -0.000273
    24  C   -0.005335   0.000291
    25  C    0.012794   0.001431
    26  C    0.000384   0.001524
    27  C    0.011935  -0.000027
    28  C   -0.007211   0.000883
    29  C   -0.005364   0.019954
    30  O   -0.120164   0.025916
    31  H    0.112740   0.001404
    32  C   -0.061058   0.000548
    33  H    0.108762  -0.000494
    34  H    0.071517   0.000440
    35  C   -0.105974   0.001622
    36  H    0.037077   0.002309
    37  O   -0.434115   0.094717
    38  H    0.172563   0.030584
    39  O   -0.215028   0.592874
    40  H    0.222116  -0.016016
    41  H    0.113609  -0.000878
    42  H    0.045837   0.000094
    43  H    0.046691   0.000582
    44  H    0.056051   0.000110
    45  H    0.052138   0.000841
    46  H    0.047799   0.000238
    47  H    0.043337   0.001239
    48  H    0.065173   0.001015
    49  H    0.099582  -0.000645
    50  H    0.045062   0.000368
    51  H    0.078119   0.000205
    52  H    0.053683  -0.000017
    53  H    0.042485   0.001191
    54  H    0.038442  -0.000120
    55  H    0.054262   0.000269
    56  H    0.047311   0.000023
    57  H    0.046341  -0.000219
    58  H    0.050350   0.000004
    59  H    0.033251  -0.000019
    60  H    0.087760  -0.000042
    61  H    0.042828   0.000491
    62  H    0.036454  -0.000226
    63  H    0.107896  -0.000978
    64  H    0.066241   0.006084
 Sum of Mulliken charges =  -0.00000   2.00000
 Mulliken charges and spin densities with hydrogens summed into heavy atoms:
               1          2
     1  N   -0.392021   0.257205
     2  C   -0.001318   0.234379
     3  C    0.052754   0.171895
     4  C   -0.079351  -0.117685
     5  C   -0.027809   0.441240
     6  C   -0.098350  -0.066211
     7  C    0.218776   0.007360
    11  C    0.064417  -0.006123
    12  N   -0.372153   0.022783
    16  P    0.231616   0.019722
    18  Ru   0.221680   0.257198
    19  C    0.193596   0.002214
    20  C   -0.474295   0.009256
    21  C    0.105072   0.002919
    22  C   -0.475080   0.000210
    23  C    0.174313   0.001336
    24  C    0.171529   0.000847
    25  C    0.147984   0.002771
    26  C    0.210975   0.006403
    27  C    0.155937  -0.000218
    28  C    0.156628   0.001313
    29  C   -0.005364   0.019954
    30  O   -0.120164   0.025916
    32  C    0.094929   0.001737
    35  C    0.100164   0.001420
    37  O   -0.261552   0.125300
    39  O    0.007087   0.576857
 Electronic spatial extent (au):  <R**2>=           9747.2652
 Charge=             -0.0000 electrons
 Dipole moment (field-independent basis, Debye):
    X=              3.1589    Y=             -2.0331    Z=             -0.6006  Tot=              3.8044
 Quadrupole moment (field-independent basis, Debye-Ang):
   XX=           -166.5395   YY=           -197.5104   ZZ=           -192.1111
   XY=              1.6071   XZ=             -4.4744   YZ=              1.6136
 Traceless Quadrupole moment (field-independent basis, Debye-Ang):
   XX=             18.8475   YY=            -12.1234   ZZ=             -6.7241
   XY=              1.6071   XZ=             -4.4744   YZ=              1.6136
 Octapole moment (field-independent basis, Debye-Ang**2):
  XXX=            -28.3650  YYY=            -80.2448  ZZZ=            -21.2632  XYY=             12.1349
  XXY=            -20.4512  XXZ=              2.8455  XZZ=              8.7536  YZZ=            -15.7198
  YYZ=              3.4546  XYZ=              3.8443
 Hexadecapole moment (field-independent basis, Debye-Ang**3):
 XXXX=          -7153.0364 YYYY=          -3736.8647 ZZZZ=          -2309.8022 XXXY=              7.8938
 XXXZ=              8.4480 YYYX=             39.5176 YYYZ=            -71.4576 ZZZX=             33.1779
 ZZZY=             27.9256 XXYY=          -1807.3852 XXZZ=          -1556.7130 YYZZ=          -1008.8330
 XXYZ=             20.5411 YYXZ=            -32.5912 ZZXY=             20.6592
 N-N= 3.499211628533D+03 E-N=-1.061190747932D+04  KE= 1.485844706458D+03
                          Isotropic Fermi Contact Couplings
        Atom                 a.u.       MegaHertz       Gauss      10(-4) cm-1
     1  N(14)              0.05801       9.37156       3.34401       3.12602
     2  C(13)              0.02562      14.39901       5.13792       4.80299
     3  C(13)              0.01589       8.93386       3.18782       2.98001
     4  C(13)             -0.02696     -15.15440      -5.40747      -5.05497
     5  C(13)              0.05853      32.89697      11.73846      10.97325
     6  C(13)             -0.01938     -10.89470      -3.88750      -3.63408
[...]
              Anisotropic Spin Dipole Couplings in Principal Axis System
 ---------------------------------------------------------------------------------

       Atom             a.u.   MegaHertz   Gauss  10(-4) cm-1        Axes

              Baa    -0.2811   -10.840    -3.868    -3.616 -0.1973  0.9187 -0.3422
     1 N(14)  Bbb    -0.2440    -9.410    -3.358    -3.139  0.9156  0.0479 -0.3993
              Bcc     0.5251    20.250     7.226     6.755  0.3505  0.3921  0.8506
 
              Baa    -0.1265   -16.970    -6.055    -5.661  0.3999  0.8632 -0.3082
     2 C(13)  Bbb    -0.1193   -16.013    -5.714    -5.341  0.8354 -0.4817 -0.2649
              Bcc     0.2458    32.983    11.769    11.002  0.3771  0.1515  0.9137
 
              Baa    -0.1143   -15.336    -5.472    -5.116 -0.6560  0.7200  0.2266
     3 C(13)  Bbb    -0.1056   -14.171    -5.057    -4.727  0.5972  0.6787 -0.4274
              Bcc     0.2199    29.507    10.529     9.843  0.4615  0.1450  0.8752
 
              Baa    -0.0930   -12.482    -4.454    -4.164  0.3968  0.1415  0.9069
     4 C(13)  Bbb     0.0377     5.059     1.805     1.688  0.8930 -0.2880 -0.3458
              Bcc     0.0553     7.423     2.649     2.476  0.2123  0.9471 -0.2407
 
              Baa    -0.2308   -30.968   -11.050   -10.330  0.9117  0.1387 -0.3869
     5 C(13)  Bbb    -0.2156   -28.925   -10.321    -9.648 -0.1655  0.9855 -0.0368
              Bcc     0.4463    59.893    21.371    19.978  0.3762  0.0976  0.9214
 
              Baa    -0.0757   -10.157    -3.624    -3.388  0.3445  0.1547  0.9259
     6 C(13)  Bbb     0.0291     3.905     1.393     1.303  0.7662  0.5236 -0.3726
              Bcc     0.0466     6.252     2.231     2.085 -0.5425  0.8378  0.0618
 
              Baa    -0.0070    -0.945    -0.337    -0.315  0.5448  0.0434  0.8374
     7 C(13)  Bbb     0.0022     0.301     0.107     0.100  0.2303  0.9525 -0.1992
              Bcc     0.0048     0.645     0.230     0.215  0.8063 -0.3014 -0.5090
 
              Baa    -0.0059    -3.125    -1.115    -1.042  0.4396  0.0814  0.8945
     8 H(1)   Bbb    -0.0001    -0.055    -0.020    -0.018  0.8982 -0.0334 -0.4384
              Bcc     0.0060     3.180     1.135     1.061 -0.0058  0.9961 -0.0878
 
              Baa    -0.0327   -17.474    -6.235    -5.829  0.9131  0.1273 -0.3874
     9 H(1)   Bbb     0.0012     0.620     0.221     0.207  0.3850  0.0437  0.9219
              Bcc     0.0316    16.854     6.014     5.622 -0.1343  0.9909  0.0091
 
              Baa    -0.0056    -2.988    -1.066    -0.997  0.3424  0.0784  0.9363
    10 H(1)   Bbb     0.0005     0.260     0.093     0.087  0.9279  0.1284 -0.3501
              Bcc     0.0051     2.728     0.974     0.910 -0.1477  0.9886 -0.0288
 
              Baa    -0.0070    -0.940    -0.336    -0.314  0.1614 -0.0536  0.9854
    11 C(13)  Bbb     0.0009     0.122     0.044     0.041 -0.1400  0.9872  0.0766
              Bcc     0.0061     0.818     0.292     0.273  0.9769  0.1503 -0.1518
 
              Baa    -0.0178    -0.686    -0.245    -0.229  0.6399 -0.0136  0.7683
    12 N(14)  Bbb    -0.0071    -0.274    -0.098    -0.091  0.6033  0.6282 -0.4913
              Bcc     0.0249     0.959     0.342     0.320 -0.4760  0.7779  0.4102
 
              Baa    -0.0042    -2.220    -0.792    -0.740  0.4607 -0.2747  0.8440
    13 H(1)   Bbb    -0.0021    -1.146    -0.409    -0.382 -0.0077  0.9496  0.3132
              Bcc     0.0063     3.366     1.201     1.123  0.8875  0.1508 -0.4354
 
              Baa    -0.0060    -3.202    -1.143    -1.068  0.8373  0.0030  0.5467
    14 H(1)   Bbb     0.0003     0.160     0.057     0.053 -0.1347  0.9703  0.2010
              Bcc     0.0057     3.042     1.086     1.015 -0.5298 -0.2420  0.8129
 
              Baa    -0.0068    -3.631    -1.296    -1.211  0.5321 -0.1368  0.8355
    15 H(1)   Bbb     0.0010     0.538     0.192     0.180 -0.1759  0.9475  0.2671
              Bcc     0.0058     3.092     1.103     1.032  0.8282  0.2891 -0.4801
 
              Baa    -0.0120    -2.602    -0.929    -0.868 -0.3369  0.1609  0.9277
    16 P(31)  Bbb    -0.0068    -1.466    -0.523    -0.489  0.9333  0.1868  0.3065
              Bcc     0.0188     4.069     1.452     1.357 -0.1240  0.9691 -0.2132
 
              Baa    -0.0039    -2.074    -0.740    -0.692  0.2576 -0.2659  0.9290
    17 H(1)   Bbb    -0.0020    -1.094    -0.390    -0.365 -0.0430  0.9573  0.2859
              Bcc     0.0059     3.168     1.130     1.057  0.9653  0.1136 -0.2352
 
              Baa    -0.0591     1.449     0.517     0.483  0.9522  0.1895 -0.2396
    18 Ru(99) Bbb     0.0046    -0.113    -0.040    -0.038  0.2495 -0.0297  0.9679
              Bcc     0.0545    -1.336    -0.477    -0.446 -0.1763  0.9814  0.0756
 
              Baa    -0.0061    -0.815    -0.291    -0.272  0.0206 -0.2713  0.9623
    19 C(13)  Bbb    -0.0024    -0.323    -0.115    -0.108  0.2641  0.9298  0.2565
              Bcc     0.0085     1.137     0.406     0.379  0.9643 -0.2488 -0.0908
 
              Baa    -0.0031    -0.421    -0.150    -0.141  0.0204  0.2061  0.9783
    20 C(13)  Bbb    -0.0018    -0.237    -0.085    -0.079 -0.1055  0.9735 -0.2029
              Bcc     0.0049     0.658     0.235     0.220  0.9942  0.0991 -0.0416
 
              Baa    -0.0028    -0.379    -0.135    -0.126  0.4634  0.6821  0.5657
    21 C(13)  Bbb    -0.0018    -0.240    -0.086    -0.080 -0.4266  0.7312 -0.5323
              Bcc     0.0046     0.619     0.221     0.206  0.7767 -0.0053 -0.6299
 
              Baa    -0.0034    -0.456    -0.163    -0.152 -0.6160 -0.3566  0.7024
    22 C(13)  Bbb    -0.0026    -0.344    -0.123    -0.115 -0.3970  0.9107  0.1141
              Bcc     0.0060     0.800     0.286     0.267  0.6804  0.2086  0.7025
 
              Baa    -0.0046    -0.613    -0.219    -0.204  0.3660  0.7202  0.5894
    23 C(13)  Bbb    -0.0025    -0.329    -0.117    -0.110  0.0609 -0.6505  0.7571
              Bcc     0.0070     0.942     0.336     0.314  0.9286 -0.2412 -0.2819
 
              Baa    -0.0021    -0.288    -0.103    -0.096 -0.0112  0.4811  0.8766
    24 C(13)  Bbb    -0.0013    -0.179    -0.064    -0.060  0.1300  0.8699 -0.4757
              Bcc     0.0035     0.467     0.167     0.156  0.9915 -0.1086  0.0723
 
              Baa    -0.0015    -0.198    -0.071    -0.066  0.1762  0.1749  0.9687
    25 C(13)  Bbb    -0.0012    -0.155    -0.055    -0.052 -0.1156  0.9810 -0.1561
              Bcc     0.0026     0.353     0.126     0.118  0.9775  0.0844 -0.1931
 
              Baa    -0.0044    -0.595    -0.212    -0.198  0.7497 -0.3923 -0.5330
    26 C(13)  Bbb     0.0007     0.094     0.033     0.031  0.5744  0.7856  0.2298
              Bcc     0.0037     0.501     0.179     0.167  0.3286 -0.4784  0.8143
 
              Baa    -0.0015    -0.197    -0.070    -0.066 -0.3386 -0.0928  0.9363
    27 C(13)  Bbb    -0.0008    -0.110    -0.039    -0.037 -0.1796  0.9832  0.0325
              Bcc     0.0023     0.307     0.110     0.103  0.9236  0.1572  0.3496
 
              Baa    -0.0025    -0.339    -0.121    -0.113 -0.5786  0.4938  0.6492
    28 C(13)  Bbb     0.0003     0.044     0.016     0.015  0.1554  0.8481 -0.5066
              Bcc     0.0022     0.295     0.105     0.098  0.8007  0.1922  0.5674
 
              Baa    -0.0203    -2.727    -0.973    -0.910  0.8255  0.4434 -0.3492
    29 C(13)  Bbb    -0.0115    -1.538    -0.549    -0.513  0.5258 -0.3789  0.7616
              Bcc     0.0318     4.266     1.522     1.423 -0.2054  0.8123  0.5459
 
              Baa    -0.0298     2.153     0.768     0.718 -0.1473 -0.5854  0.7972
    30 O(17)  Bbb    -0.0237     1.717     0.613     0.573  0.9833  0.0006  0.1822
              Bcc     0.0535    -3.870    -1.381    -1.291 -0.1071  0.8107  0.5755
 
              Baa    -0.0094    -5.014    -1.789    -1.672 -0.3618 -0.4585  0.8117
    31 H(1)   Bbb     0.0013     0.684     0.244     0.228  0.4978  0.6411  0.5841
              Bcc     0.0081     4.329     1.545     1.444  0.7882 -0.6154  0.0037
 
              Baa    -0.0029    -0.394    -0.141    -0.131 -0.1000 -0.3429  0.9340
    32 C(13)  Bbb    -0.0012    -0.162    -0.058    -0.054  0.0044  0.9386  0.3451
              Bcc     0.0041     0.556     0.198     0.185  0.9950 -0.0386  0.0924
 
              Baa    -0.0085    -4.513    -1.610    -1.505 -0.0223  0.1187  0.9927
    33 H(1)   Bbb    -0.0067    -3.579    -1.277    -1.194  0.0642  0.9910 -0.1171
              Bcc     0.0152     8.092     2.887     2.699  0.9977 -0.0611  0.0297
 
              Baa    -0.0033    -1.752    -0.625    -0.584  0.7717 -0.0484  0.6341
    34 H(1)   Bbb    -0.0014    -0.735    -0.262    -0.245  0.0305  0.9988  0.0391
              Bcc     0.0047     2.486     0.887     0.829 -0.6352 -0.0108  0.7722
 
              Baa    -0.0051    -0.682    -0.243    -0.228  0.3478  0.2344  0.9078
    35 C(13)  Bbb    -0.0034    -0.460    -0.164    -0.153 -0.2297  0.9600 -0.1599
              Bcc     0.0085     1.142     0.407     0.381  0.9090  0.1529 -0.3878
 
              Baa    -0.0024    -1.292    -0.461    -0.431  0.4951 -0.1019  0.8628
    36 H(1)   Bbb    -0.0012    -0.624    -0.223    -0.208 -0.0245  0.9911  0.1311
              Bcc     0.0036     1.917     0.684     0.639  0.8685  0.0860 -0.4882
 
              Baa    -1.0909    78.933    28.165    26.329  0.9528 -0.2520 -0.1695
    37 O(17)  Bbb    -0.8826    63.864    22.788    21.303  0.3036  0.8069  0.5067
              Bcc     1.9734  -142.797   -50.954   -47.632  0.0091 -0.5342  0.8453
 
              Baa    -0.0773   -41.252   -14.720   -13.760  0.3789  0.7747  0.5063
    38 H(1)   Bbb    -0.0275   -14.694    -5.243    -4.902 -0.2287 -0.4518  0.8623
              Bcc     0.1049    55.946    19.963    18.662  0.8967 -0.4425  0.0060
 
              Baa    -1.1814    85.482    30.502    28.514  0.9146 -0.0822 -0.3959
    39 O(17)  Bbb    -0.9697    70.164    25.036    23.404  0.3446  0.6709  0.6566
              Bcc     2.1510  -155.646   -55.538   -51.918 -0.2117  0.7370 -0.6419
 
              Baa    -0.0834   -44.518   -15.885   -14.850  0.5169  0.6356  0.5735
    40 H(1)   Bbb    -0.0296   -15.778    -5.630    -5.263 -0.3809  0.7707 -0.5108
              Bcc     0.1130    60.296    21.515    20.113  0.7666 -0.0456 -0.6405
 
              Baa    -0.0101    -5.401    -1.927    -1.802  0.1613  0.5541  0.8167
    41 H(1)   Bbb    -0.0075    -4.009    -1.430    -1.337 -0.4691  0.7711 -0.4305
              Bcc     0.0176     9.410     3.358     3.139  0.8683  0.3137 -0.3843
 
              Baa    -0.0031    -1.631    -0.582    -0.544  0.1065  0.2008  0.9738
    42 H(1)   Bbb    -0.0026    -1.371    -0.489    -0.457 -0.3276  0.9318 -0.1563
              Bcc     0.0056     3.002     1.071     1.002  0.9388  0.3024 -0.1651
 
              Baa    -0.0024    -1.301    -0.464    -0.434  0.4664  0.1831  0.8654
    43 H(1)   Bbb    -0.0020    -1.041    -0.371    -0.347 -0.4312  0.9013  0.0417
              Bcc     0.0044     2.342     0.836     0.781  0.7723  0.3926 -0.4993
 
              Baa    -0.0021    -1.140    -0.407    -0.380 -0.2911 -0.3115  0.9046
    44 H(1)   Bbb    -0.0012    -0.644    -0.230    -0.215 -0.0209  0.9474  0.3195
              Bcc     0.0033     1.784     0.637     0.595  0.9565 -0.0741  0.2823
 
              Baa    -0.0026    -1.364    -0.487    -0.455 -0.0596 -0.2207  0.9735
    45 H(1)   Bbb    -0.0011    -0.585    -0.209    -0.195  0.0409  0.9739  0.2233
              Bcc     0.0037     1.949     0.696     0.650  0.9974 -0.0531  0.0490
 
              Baa    -0.0020    -1.049    -0.374    -0.350  0.0525 -0.1588  0.9859
    46 H(1)   Bbb    -0.0012    -0.621    -0.222    -0.207 -0.0513  0.9855  0.1615
              Bcc     0.0031     1.670     0.596     0.557  0.9973  0.0591 -0.0436
 
              Baa    -0.0024    -1.305    -0.466    -0.435  0.4742  0.3473  0.8090
    47 H(1)   Bbb    -0.0020    -1.047    -0.374    -0.349 -0.0179  0.9225 -0.3856
              Bcc     0.0044     2.352     0.839     0.784  0.8802 -0.1684 -0.4437
 
              Baa    -0.0055    -2.933    -1.047    -0.978  0.5001  0.1153  0.8583
    48 H(1)   Bbb    -0.0036    -1.932    -0.690    -0.645 -0.1569  0.9868 -0.0411
              Bcc     0.0091     4.866     1.736     1.623  0.8517  0.1141 -0.5115
 
              Baa    -0.0086    -4.566    -1.629    -1.523  0.4075  0.6790  0.6106
    49 H(1)   Bbb    -0.0061    -3.262    -1.164    -1.088  0.0840 -0.6937  0.7154
              Bcc     0.0147     7.828     2.793     2.611  0.9093 -0.2402 -0.3397
 
              Baa    -0.0015    -0.813    -0.290    -0.271  0.0682  0.0457  0.9966
    50 H(1)   Bbb    -0.0013    -0.677    -0.242    -0.226  0.2410  0.9686 -0.0609
              Bcc     0.0028     1.489     0.531     0.497  0.9681 -0.2444 -0.0551
 
              Baa    -0.0030    -1.610    -0.575    -0.537 -0.1785  0.1450  0.9732
    51 H(1)   Bbb    -0.0024    -1.307    -0.466    -0.436  0.2192  0.9701 -0.1043
              Bcc     0.0055     2.917     1.041     0.973  0.9592 -0.1947  0.2050
 
              Baa    -0.0014    -0.763    -0.272    -0.254 -0.1984 -0.0406  0.9793
    52 H(1)   Bbb    -0.0011    -0.569    -0.203    -0.190  0.0741  0.9957  0.0563
              Bcc     0.0025     1.331     0.475     0.444  0.9773 -0.0838  0.1945
 
              Baa    -0.0012    -0.632    -0.225    -0.211  0.2728 -0.0497  0.9608
    53 H(1)   Bbb    -0.0009    -0.475    -0.169    -0.158  0.0072  0.9987  0.0497
              Bcc     0.0021     1.107     0.395     0.369  0.9621  0.0067 -0.2728
 
              Baa    -0.0013    -0.697    -0.249    -0.232  0.0853 -0.1182  0.9893
    54 H(1)   Bbb    -0.0009    -0.457    -0.163    -0.153 -0.1177  0.9848  0.1278
              Bcc     0.0022     1.154     0.412     0.385  0.9894  0.1273 -0.0701
 
              Baa    -0.0019    -0.994    -0.355    -0.331  0.3465 -0.1274  0.9293
    55 H(1)   Bbb    -0.0012    -0.634    -0.226    -0.211 -0.1136  0.9777  0.1764
              Bcc     0.0030     1.627     0.581     0.543  0.9311  0.1667 -0.3244
 
              Baa    -0.0011    -0.610    -0.218    -0.203 -0.2502 -0.0327  0.9676
    56 H(1)   Bbb    -0.0008    -0.427    -0.152    -0.142 -0.1184  0.9930  0.0029
              Bcc     0.0019     1.037     0.370     0.346  0.9609  0.1139  0.2523
 
              Baa    -0.0011    -0.572    -0.204    -0.191 -0.4408 -0.0202  0.8974
    57 H(1)   Bbb    -0.0007    -0.375    -0.134    -0.125 -0.2044  0.9757 -0.0785
              Bcc     0.0018     0.947     0.338     0.316  0.8740  0.2180  0.4342
 
              Baa    -0.0016    -0.843    -0.301    -0.281 -0.1602 -0.1254  0.9791
    58 H(1)   Bbb    -0.0010    -0.521    -0.186    -0.174 -0.2654  0.9608  0.0796
              Bcc     0.0026     1.363     0.486     0.455  0.9507  0.2471  0.1872
 
              Baa    -0.0016    -0.846    -0.302    -0.282 -0.5202 -0.0743  0.8508
    59 H(1)   Bbb    -0.0010    -0.526    -0.188    -0.175 -0.0012  0.9963  0.0862
              Bcc     0.0026     1.372     0.490     0.458  0.8541 -0.0438  0.5183
 
              Baa    -0.0027    -1.438    -0.513    -0.480  0.7342 -0.0982 -0.6718
    60 H(1)   Bbb    -0.0017    -0.928    -0.331    -0.310  0.0108  0.9910 -0.1331
              Bcc     0.0044     2.366     0.844     0.789  0.6788  0.0904  0.7287
 
              Baa    -0.0013    -0.676    -0.241    -0.226  0.7301 -0.0656 -0.6801
    61 H(1)   Bbb    -0.0008    -0.436    -0.155    -0.145 -0.0061  0.9947 -0.1025
              Bcc     0.0021     1.112     0.397     0.371  0.6833  0.0789  0.7259
 
              Baa    -0.0018    -0.971    -0.347    -0.324  0.7844 -0.0316 -0.6194
    62 H(1)   Bbb    -0.0010    -0.508    -0.181    -0.169 -0.1326  0.9671 -0.2173
              Bcc     0.0028     1.479     0.528     0.493  0.6059  0.2526  0.7544
 
              Baa    -0.0036    -1.946    -0.694    -0.649  0.8684  0.0093 -0.4957
    63 H(1)   Bbb    -0.0014    -0.722    -0.258    -0.241 -0.0570  0.9951 -0.0812
              Bcc     0.0050     2.668     0.952     0.890  0.4925  0.0988  0.8647
 
              Baa    -0.0043    -2.318    -0.827    -0.773  0.7116 -0.1271 -0.6909
    64 H(1)   Bbb    -0.0019    -1.022    -0.365    -0.341 -0.0147  0.9806 -0.1955
              Bcc     0.0063     3.341     1.192     1.114  0.7024  0.1493  0.6960
 

 ---------------------------------------------------------------------------------

 1\1\GINC-NODE269\FOpt\UPBE1PBE\GenECP\C20H37N2O3P1Ru1(3)\JS1212\29-Jul
 -2020\0\\# opt=ModRedundant genecp pbe1pbe EmpiricalDispersion=GD3BJ N
 oSymm\\Title Card Required\\0,3\N,-0.7788659586,1.3211959208,-0.321781
 0689\C,-1.9443103137,1.8826580819,0.1778491151\C,0.2060437215,2.185337
 7336,-0.7703960873\C,-2.1793379867,3.2354014901,0.1403902569\C,-1.2015
 68535,4.1164771596,-0.3670781139\C,0.0168203959,3.5460274097,-0.802398
 9936\C,-2.8325819938,0.8910742615,0.8502076533\H,-3.1282716281,3.61589
 80135,0.5255602853\H,-1.3673671738,5.1920029696,-0.399995331\H,0.81845
 02734,4.1784442276,-1.1909282684\C,1.4515793435,1.5021632129,-1.235325
 1404\N,-2.7267779783,-0.4516519219,0.2252075392\H,-3.8791315071,1.2381
 46606,0.8718681266\H,-2.515226923,0.76376747,1.9001708849\H,1.30958990
 72,1.1168159558,-2.26279989\P,1.7581523697,-0.0245082255,-0.2084425863
 \H,2.3140640215,2.1837527708,-1.2520295131\Ru,-0.4749934778,-0.6498208
 314,0.082475965\C,-3.3156588965,-0.4285019228,-1.1384848009\C,3.009918
 1085,-0.9905283246,-1.2912229259\C,-3.4099778587,-1.4238700596,1.11210
 7608\C,2.6605472253,0.6203041486,1.3470391532\C,2.2372135609,-1.677746
 6153,-2.4197507186\C,3.6894255487,-2.0790766672,-0.4601574365\C,4.0605
 27863,-0.0960844992,-1.9566150015\C,1.7886421137,1.7345264583,1.942040
 8562\C,4.0342872794,1.2257274961,1.0543354346\C,2.8289965906,-0.504131
 6894,2.3738021315\C,-0.3879118032,-0.6608216366,1.8806646285\O,-0.4417
 597822,-0.7248980937,3.0471943488\H,-2.7575912473,0.3359292813,-1.6962
 742359\C,-4.8086693434,-0.1521206082,-1.219175872\H,-3.0682267968,-1.3
 8484799,-1.6113934308\H,-2.8610965634,-1.4154318378,2.0645141282\C,-3.
 4780971008,-2.8352844376,0.5691793758\H,-4.426710105,-1.0459735496,1.3
 328604906\O,-0.5642499269,-2.6865303208,-0.5100180423\H,0.3344317401,-
 3.043173662,-0.587510982\O,-0.8366125936,-1.4975253102,-1.8728520708\H
 ,-0.0440505473,-1.6234972221,-2.4104581769\H,-2.4830163376,-3.18413527
 09,0.2607283486\H,-4.1578886796,-2.9179098289,-0.2918645514\H,-3.86351
 40733,-3.4994894138,1.3571950901\H,-5.1033790331,-0.1625366855,-2.2792
 790559\H,-5.0854368679,0.8345304436,-0.8193284065\H,-5.4134364479,-0.9
 150424682,-0.706327486\H,2.9525657896,-2.1789090819,-3.0920757321\H,1.
 6689729404,-0.9600539889,-3.0321420957\H,1.5560757489,-2.4517973961,-2
 .0391443346\H,4.2315118152,-2.7663175418,-1.1310062834\H,2.9596296632,
 -2.6735052742,0.1122508978\H,4.4220211792,-1.6665249836,0.245843504\H,
 4.7280310412,-0.7301832822,-2.5644333915\H,4.6860238586,0.4479894343,-
 1.2418863754\H,3.601540593,0.6346037918,-2.6381595138\H,4.7788934155,0
 .4701773363,0.7692384364\H,4.4022002011,1.709297562,1.9743616856\H,3.9
 979853466,2.0010360131,0.2747559867\H,3.5753211048,-1.2451883686,2.061
 3276822\H,1.8917093332,-1.0303872333,2.5857524694\H,3.1801983479,-0.06
 40580386,3.3217833164\H,2.2196471856,2.0287655253,2.9129107644\H,0.751
 9179772,1.4231721881,2.1145804066\H,1.7642688762,2.6233383199,1.296958
 3434\\Version=ES64L-G16RevA.03\HF=-1554.5299185\S2=2.02844\S2-1=0.\S2A
 =2.000473\RMSD=6.476e-09\RMSF=6.115e-03\Dipole=1.3853827,-0.1649387,-0
 .5913841\Quadrupole=13.6923313,-7.5712888,-6.1210425,-1.8373745,-4.835
 8466,2.2312268\PG=C01 [X(C20H37N2O3P1Ru1)]\\@


 LEARN FROM YESTERDAY,
 LIVE FOR TODAY,
 LOOK TO TOMORROW,
 REST THIS AFTERNOON.

           -- SNOOPY
 Job cpu time:       3 days 11 hours 47 minutes 16.5 seconds.
 Elapsed time:       0 days  4 hours 12 minutes  3.1 seconds.
 File lengths (MBytes):  RWF=    376 Int=      0 D2E=      0 Chk=     37 Scr=      1
 Normal termination of Gaussian 16 at Wed Jul 29 21:04:16 2020.
