 Entering Gaussian System, Link 0=g16
 Initial command:
 /cluster/chemistry/gaussian/g16/l1.exe "/scratch/js1212.757036/scratch/Gau-20983.inp" -scrdir="/scratch/js1212.757036/scratch/"
 Entering Link 1 = /cluster/chemistry/gaussian/g16/l1.exe PID=     20984.
  
 Copyright (c) 1988,1990,1992,1993,1995,1998,2003,2009,2016,
            Gaussian, Inc.  All Rights Reserved.
  
 This is part of the Gaussian(R) 16 program.  It is based on
 the Gaussian(R) 09 system (copyright 2009, Gaussian, Inc.),
 the Gaussian(R) 03 system (copyright 2003, Gaussian, Inc.),
 the Gaussian(R) 98 system (copyright 1998, Gaussian, Inc.),
 the Gaussian(R) 94 system (copyright 1995, Gaussian, Inc.),
 the Gaussian 92(TM) system (copyright 1992, Gaussian, Inc.),
 the Gaussian 90(TM) system (copyright 1990, Gaussian, Inc.),
 the Gaussian 88(TM) system (copyright 1988, Gaussian, Inc.),
 the Gaussian 86(TM) system (copyright 1986, Carnegie Mellon
 University), and the Gaussian 82(TM) system (copyright 1983,
 Carnegie Mellon University). Gaussian is a federally registered
 trademark of Gaussian, Inc.
  
 This software contains proprietary and confidential information,
 including trade secrets, belonging to Gaussian, Inc.
  
 This software is provided under written license and may be
 used, copied, transmitted, or stored only in accord with that
 written license.
  
 The following legend is applicable only to US Government
 contracts under FAR:
  
                    RESTRICTED RIGHTS LEGEND
  
 Use, reproduction and disclosure by the US Government is
 subject to restrictions as set forth in subparagraphs (a)
 and (c) of the Commercial Computer Software - Restricted
 Rights clause in FAR 52.227-19.
  
 Gaussian, Inc.
 340 Quinnipiac St., Bldg. 40, Wallingford CT 06492
  
  
 ---------------------------------------------------------------
 Warning -- This program may not be used in any manner that
 competes with the business of Gaussian, Inc. or will provide
 assistance to any competitor of Gaussian, Inc.  The licensee
 of this program is prohibited from giving any competitor of
 Gaussian, Inc. access to this program.  By using this program,
 the user acknowledges that Gaussian, Inc. is engaged in the
 business of creating and licensing software in the field of
 computational chemistry and represents and warrants to the
 licensee that it is not a competitor of Gaussian, Inc. and that
 it will not use this program in any manner prohibited above.
 ---------------------------------------------------------------
  

 Cite this work as:
 Gaussian 16, Revision A.03,
 M. J. Frisch, G. W. Trucks, H. B. Schlegel, G. E. Scuseria, 
 M. A. Robb, J. R. Cheeseman, G. Scalmani, V. Barone, 
 G. A. Petersson, H. Nakatsuji, X. Li, M. Caricato, A. V. Marenich, 
 J. Bloino, B. G. Janesko, R. Gomperts, B. Mennucci, H. P. Hratchian, 
 J. V. Ortiz, A. F. Izmaylov, J. L. Sonnenberg, D. Williams-Young, 
 F. Ding, F. Lipparini, F. Egidi, J. Goings, B. Peng, A. Petrone, 
 T. Henderson, D. Ranasinghe, V. G. Zakrzewski, J. Gao, N. Rega, 
 G. Zheng, W. Liang, M. Hada, M. Ehara, K. Toyota, R. Fukuda, 
 J. Hasegawa, M. Ishida, T. Nakajima, Y. Honda, O. Kitao, H. Nakai, 
 T. Vreven, K. Throssell, J. A. Montgomery, Jr., J. E. Peralta, 
 F. Ogliaro, M. J. Bearpark, J. J. Heyd, E. N. Brothers, K. N. Kudin, 
 V. N. Staroverov, T. A. Keith, R. Kobayashi, J. Normand, 
 K. Raghavachari, A. P. Rendell, J. C. Burant, S. S. Iyengar, 
 J. Tomasi, M. Cossi, J. M. Millam, M. Klene, C. Adamo, R. Cammi, 
 J. W. Ochterski, R. L. Martin, K. Morokuma, O. Farkas, 
 J. B. Foresman, and D. J. Fox, Gaussian, Inc., Wallingford CT, 2016.
 
 ******************************************
 Gaussian 16:  ES64L-G16RevA.03 25-Dec-2016
                17-Jul-2020 
 ******************************************
 %rwf=/scratch/js1212.757036/TSHJ-Trans-R2-R2-Down-T-GPOF.rwf
 %nosave
 %nprocshared=20
 Will use up to   20 processors via shared memory.
 %mem=3000MB
 %oldchk=/data/js1212/200716_g16/TSHJ-Trans-R2-R2-Down-T-Guess-OH-GPF.chk
 %chk=/scratch/js1212.757036/TSHJ-Trans-R2-R2-Down-T-GPOF.chk
 Copying data from "/data/js1212/200716_g16/TSHJ-Trans-R2-R2-Down-T-Guess-OH-GPF.chk" to current chk file "/scratch/js1212.757036/TSHJ-Trans-R2-R2-Down-T-GPOF.chk"
 IOpt=  2 FromEx=T IUOpen= 4 IOptOp= 5 NList=   0 IFRang= 0 IUIn= 4 IUOut= 2.
 ----------------------------------------------------------------------
 # opt=(ts,ReadFC,NoEigenTest) freq genecp pbe1pbe EmpiricalDispersion=
 GD3BJ Geom=AllCheck
 ----------------------------------------------------------------------
 1/5=1,10=3,11=1,18=20,26=3,29=7,38=1/1,3;
 2/9=110,12=2,40=1/2;
 3/5=7,11=2,14=-4,16=1,17=8,25=1,30=1,71=1,74=-13,124=41/1,2,3;
 4//1;
 5/5=2,38=5/2;
 6/7=2,8=2,9=2,10=2,28=1/1;
 7//1,2,3,16;
 1/5=1,11=1,18=20,26=3/3(2);
 2/9=110/2;
 99//99;
 2/9=110/2;
 3/5=7,6=1,11=2,14=-2,16=1,17=8,25=1,30=1,71=1,74=-13,82=7,124=41/1,2,3;
 4/5=5,16=3,69=1/1;
 5/5=2,38=5/2;
 7//1,2,3,16;
 1/5=1,11=1,18=20,26=3/3(-5);
 2/9=110/2;
 6/7=2,8=2,9=2,10=2,19=2,28=1/1;
 99/9=1/99;
 Structure from the checkpoint file:  "/scratch/js1212.757036/TSHJ-Trans-R2-R2-Down-T-GPOF.chk"
 -------------------
 Title Card Required
 -------------------
 Charge =  0 Multiplicity = 3
 Redundant internal coordinates found in file.  (old form).
 H,0,-0.7662329368,1.3175058868,4.7201205393
 C,0,-1.706599129,1.0653279613,4.2083479974
 H,0,-2.5135903289,1.108039797,4.9556469261
 H,0,-1.6116999103,0.0337984922,3.8362886734
 H,0,-0.3562592758,-1.5506420199,-0.8385112425
 O,0,-1.2809664793,0.7233478904,0.3003244316
 H,0,-1.7318614879,-3.8463193411,0.6702776296
 O,0,-0.1471553043,0.5009098653,0.9803193491
 H,0,-1.468799149,-1.8907042576,2.2524806195
 C,0,-1.9088320291,2.0319907494,3.06217565
 H,0,-0.0657035424,-2.1150530975,-2.5125309489
 H,0,-1.9765089143,3.0726034121,3.4330015059
 C,0,-0.7648209004,-2.1576486332,-1.6601668101
 H,0,-3.0112928053,-3.4490614661,1.8342168926
 H,0,-0.8004025174,-3.2072435135,-1.3315542863
 H,0,-1.0435358186,1.9789534882,2.3882321047
 C,0,-2.7924839443,-4.0063759027,0.9136395154
 H,0,-2.9371254691,-5.0794572834,1.1225859619
 H,0,-2.1494405258,2.707688306,0.6713812457
 Ru,0,-2.9785461954,-0.2595862627,1.0895546805
 H,0,-1.6782495891,0.4570464359,-1.6232697727
 N,0,-3.1007422802,1.7312887224,2.234384165
 C,0,-3.1533379797,2.7079132712,1.1251689192
 C,0,-2.1278204971,-1.6377791129,-2.1137690799
 H,0,-1.2394682611,-0.0613831109,-3.2690042212
 H,0,-2.5073436775,-4.6563794025,-1.7088860338
 C,0,-2.0021873558,-0.1518567454,-2.4775077235
 C,0,-3.7252935284,-3.5867338153,-0.2279332425
 P,0,-3.3035895254,-1.7581464033,-0.6200664862
 H,0,-3.3740570902,3.7262182922,1.4860372498
 C,0,-3.5530220971,-4.5681478102,-1.3858939014
 H,0,-4.3323207958,0.9337459383,3.7216987211
 H,0,-3.9020103637,3.2758156388,4.5467219751
 H,0,-3.8719168191,-5.5659985962,-1.0408886543
 C,0,-4.3599589108,1.7746203371,3.0182619797
 H,0,-1.9687398364,-2.0061095611,-4.2201083845
 C,0,-4.2032141743,-1.0949974865,2.154420802
 C,0,-2.5854384806,-2.3678172911,-3.3807163906
 H,0,-5.4289542774,-2.9724893018,1.0366963443
 C,0,-5.1776743085,-3.6913453812,0.2470361924
 H,0,-2.4575475304,-3.4532459763,-3.332031813
 H,0,-5.3328227338,-4.6990209546,0.6670037112
 C,0,-4.1209632734,2.3022773818,0.0482620135
 N,0,-4.1614502307,0.9850778193,-0.198391474
 C,0,-4.6539300105,3.0623942937,3.7730166962
 H,0,-2.9414639991,0.2507998947,-2.8877075379
 H,0,-5.1748637695,1.5537206365,2.3129590845
 H,0,-4.1727651055,-4.3079632451,-2.2551447189
 H,0,-4.7278493463,3.9414170679,3.1152824003
 C,0,-4.8975562807,-1.0257782652,-1.3103887863
 H,0,-5.6244289085,2.9559122081,4.2803583584
 H,0,-3.6334371142,-2.1526230841,-3.6413581134
 C,0,-4.9135762736,0.4703837033,-1.183672109
 C,0,-4.8745392765,3.1912684192,-0.7105095984
 H,0,-5.8886236271,-3.5746659504,-0.5851798194
 H,0,-4.8410920533,4.2608514836,-0.4989870537
 H,0,-5.694903939,-1.4185427559,-0.6597736602
 H,0,-5.1279182675,-1.3429840768,-2.3381645867
 C,0,-5.6757005983,1.313259155,-1.9931291143
 C,0,-5.6547618845,2.683638469,-1.7486744248
 H,0,-6.2809484789,0.896558267,-2.7992444819
 H,0,-6.2506792431,3.3580525391,-2.3664820381
 O,0,-4.9444097103,-1.6034262851,2.9054110072
 C,0,2.4633689218,-4.3279210442,1.472662844
 H,0,1.2969394956,0.2760432488,-3.1646547821
 O,0,-0.5444118679,-1.7566477995,2.5259850149
 H,0,0.1976423455,2.541499297,-1.6329916152
 O,0,2.5285739944,-1.415078716,-1.5915902345
 H,0,-0.3054744347,-0.9636186468,1.9890621795
 C,0,2.1712760191,-2.9257771151,0.9586023261
 H,0,1.7010402989,0.7891299596,-4.8264581484
 C,0,1.6888095955,1.1051192742,-3.7694098691
 H,0,0.6185759996,2.3520980008,0.0681491719
 H,0,0.9975519908,1.9571434323,-3.682975486
 C,0,0.6799159947,3.0445124886,-0.7816739562
 H,0,0.0978369487,3.9555502743,-0.5560417766
 H,0,4.0002086335,-2.7714366943,-0.7013100511
 Ru,0,2.7650405056,-0.0096191237,-0.0583167839
 H,0,3.6828536148,-0.6042925553,-2.9127408635
 N,0,3.2837327324,-1.9473866183,1.0568328966
 C,0,4.4298141209,-2.4310858927,0.25440268
 C,0,3.107785224,1.4613897318,-3.3248340075
 H,0,3.9713276894,-0.0392226135,-4.5951577435
 H,0,1.5678889822,4.1119200949,-3.112391348
 C,0,4.0212456807,0.2449521144,-3.5295412043
 C,0,2.1239410491,3.4434386287,-1.0971114715
 P,0,3.0470230313,1.8005401696,-1.4444029596
 H,0,4.9437190028,-3.2710608791,0.7523039663
 C,0,2.1227311068,4.4643919285,-2.2329694867
 H,0,4.4522919386,-0.9039834289,2.4280015866
 H,0,1.9727158938,-0.6262439057,3.0843643706
 H,0,1.6136052885,5.37490241,-1.8733948958
 C,0,3.7317267098,-1.7362933559,2.4515338387
 H,0,3.8902450773,2.1765524646,-5.188502824
 C,0,2.801883186,1.0520790012,1.4179602408
 C,0,3.6679262986,2.5934613294,-4.191925935
 H,0,2.8288220769,3.4703683338,0.9957498014
 C,0,2.7373774842,4.1306546176,0.1261238746
 H,0,2.9738800737,3.4269797696,-4.3371787264
 H,0,2.0768955906,4.9642631662,0.4189194124
 C,0,5.4171124588,-1.3523283844,-0.0868622704
 N,0,4.8672740079,-0.1672268279,-0.3818222315
 C,0,2.617298689,-1.4416508737,3.4335623309
 H,0,5.0733400196,0.4868854368,-3.311526537
 H,0,4.2925709347,-2.6307568069,2.7881472133
 H,0,3.1354637579,4.7567394677,-2.5453027894
 H,0,1.9732972788,-2.3128200694,3.6127018438
 C,0,4.8581828342,2.1504236613,-1.0582956757
 H,0,3.0586719683,-1.1375924401,4.3943991797
 H,0,4.6150185384,2.9957510824,-3.8001931806
 C,0,5.6054191296,0.8721027245,-0.8028846606
 C,0,6.7916144511,-1.5442516449,-0.1907955776
 H,0,3.7234393133,4.5658748879,-0.0996171472
 H,0,7.2321134186,-2.5094710241,0.0622371813
 H,0,4.8413593379,2.7214777341,-0.1161418156
 H,0,5.3715878104,2.7707328181,-1.8081345379
 C,0,6.9856679411,0.7348587803,-0.9510686894
 C,0,7.5795956598,-0.4845123281,-0.6359916474
 H,0,7.5838016933,1.5767716258,-1.3019716777
 H,0,8.6597564209,-0.6082245067,-0.7352662405
 H,0,1.6017806287,-1.3894234513,-1.8449575536
 O,0,2.769787262,1.6966637642,2.3948162046
 H,0,1.5530766423,-4.9359810105,1.3574034521
 H,0,2.726358361,-4.3452154275,2.5418478935
 H,0,3.2648618143,-4.8348588139,0.913107089
 H,0,1.9173265409,-2.9412439465,-0.110071541
 H,0,1.3116542501,-2.5052245798,1.4941621073
 H,0,1.11481071,0.0764393719,0.2146924079
 Recover connectivity data from disk.

 GradGradGradGradGradGradGradGradGradGradGradGradGradGradGradGradGradGrad
 Berny optimization.
 Initialization pass.
 Force constant matrix read from checkpoint file:
 "/scratch/js1212.757036/TSHJ-Trans-R2-R2-Down-T-GPOF.chk"
                           ----------------------------
                           !    Initial Parameters    !
                           ! (Angstroms and Degrees)  !
 --------------------------                            --------------------------
 ! Name  Definition              Value          Derivative Info.                !
 --------------------------------------------------------------------------------
 ! R1    R(1,2)                  1.0999         D2E/DX2 =    0.3462             !
 ! R2    R(2,3)                  1.1007         D2E/DX2 =    0.3433             !
 ! R3    R(2,4)                  1.1007         D2E/DX2 =    0.3455             !
 ! R4    R(2,10)                 1.513          D2E/DX2 =    0.3129             !
 ! R5    R(5,13)                 1.1002         D2E/DX2 =    0.3464             !
 ! R6    R(6,8)                  1.3407         D2E/DX2 =    0.3718             !
 ! R7    R(6,20)                 2.1144         D2E/DX2 =    0.105              !
 ! R8    R(7,17)                 1.0999         D2E/DX2 =    0.3466             !
 ! R9    R(8,69)                 1.7853         D2E/DX2 =    0.0214             !
 ! R10   R(8,128)                1.5359         Frozen                          !
 ! R11   R(9,66)                 0.9733         D2E/DX2 =    0.4897             !
 ! R12   R(10,12)                1.1068         D2E/DX2 =    0.3244             !
 ! R13   R(10,16)                1.0981         D2E/DX2 =    0.3482             !
 ! R14   R(10,22)                1.482          D2E/DX2 =    0.3109             !
 ! R15   R(11,13)                1.1032         D2E/DX2 =    0.3362             !
 ! R16   R(13,15)                1.1004         D2E/DX2 =    0.344              !
 ! R17   R(13,24)                1.5277         D2E/DX2 =    0.2988             !
 ! R18   R(14,17)                1.0982         D2E/DX2 =    0.3506             !
 ! R19   R(17,18)                1.1028         D2E/DX2 =    0.3375             !
 ! R20   R(17,28)                1.5328         D2E/DX2 =    0.2892             !
 ! R21   R(19,23)                1.1017         D2E/DX2 =    0.3383             !
 ! R22   R(20,29)                2.2965         D2E/DX2 =    0.1356             !
 ! R23   R(20,37)                1.8253         D2E/DX2 =    0.27               !
 ! R24   R(20,44)                2.1465         D2E/DX2 =    0.1146             !
 ! R25   R(21,27)                1.0979         D2E/DX2 =    0.3488             !
 ! R26   R(22,23)                1.4788         D2E/DX2 =    0.3153             !
 ! R27   R(22,35)                1.4839         D2E/DX2 =    0.3157             !
 ! R28   R(23,30)                1.1027         D2E/DX2 =    0.3349             !
 ! R29   R(23,43)                1.5035         D2E/DX2 =    0.351              !
 ! R30   R(24,27)                1.5349         D2E/DX2 =    0.2839             !
 ! R31   R(24,29)                1.9047         D2E/DX2 =    0.1775             !
 ! R32   R(24,38)                1.5322         D2E/DX2 =    0.2841             !
 ! R33   R(25,27)                1.1029         D2E/DX2 =    0.337              !
 ! R34   R(26,31)                1.098          D2E/DX2 =    0.3495             !
 ! R35   R(27,46)                1.1012         D2E/DX2 =    0.3417             !
 ! R36   R(28,29)                1.9171         D2E/DX2 =    0.1712             !
 ! R37   R(28,31)                1.5277         D2E/DX2 =    0.2919             !
 ! R38   R(28,40)                1.5316         D2E/DX2 =    0.2858             !
 ! R39   R(29,50)                1.8851         D2E/DX2 =    0.1518             !
 ! R40   R(31,34)                1.1029         D2E/DX2 =    0.3369             !
 ! R41   R(31,48)                1.0988         D2E/DX2 =    0.3471             !
 ! R42   R(32,35)                1.0967         D2E/DX2 =    0.3511             !
 ! R43   R(33,45)                1.0998         D2E/DX2 =    0.3467             !
 ! R44   R(35,45)                1.5213         D2E/DX2 =    0.2948             !
 ! R45   R(35,47)                1.1001         D2E/DX2 =    0.3425             !
 ! R46   R(36,38)                1.1026         D2E/DX2 =    0.3378             !
 ! R47   R(37,63)                1.1713         D2E/DX2 =    0.9918             !
 ! R48   R(38,41)                1.094          D2E/DX2 =    0.3606             !
 ! R49   R(38,52)                1.1012         D2E/DX2 =    0.3423             !
 ! R50   R(39,40)                1.097          D2E/DX2 =    0.3558             !
 ! R51   R(40,42)                1.1027         D2E/DX2 =    0.3382             !
 ! R52   R(40,55)                1.1007         D2E/DX2 =    0.3425             !
 ! R53   R(43,44)                1.3407         D2E/DX2 =    0.5848             !
 ! R54   R(43,54)                1.3907         D2E/DX2 =    0.4165             !
 ! R55   R(44,53)                1.3422         D2E/DX2 =    0.3688             !
 ! R56   R(45,49)                1.1003         D2E/DX2 =    0.3449             !
 ! R57   R(45,51)                1.1003         D2E/DX2 =    0.3457             !
 ! R58   R(50,53)                1.5016         D2E/DX2 =    0.2709             !
 ! R59   R(50,57)                1.1015         D2E/DX2 =    0.342              !
 ! R60   R(50,58)                1.1            D2E/DX2 =    0.3432             !
 ! R61   R(53,59)                1.3952         D2E/DX2 =    0.4072             !
 ! R62   R(54,56)                1.0908         D2E/DX2 =    0.3663             !
 ! R63   R(54,60)                1.3944         D2E/DX2 =    0.4191             !
 ! R64   R(59,60)                1.3922         D2E/DX2 =    0.4322             !
 ! R65   R(59,61)                1.0908         D2E/DX2 =    0.3663             !
 ! R66   R(60,62)                1.0916         D2E/DX2 =    0.3654             !
 ! R67   R(64,70)                1.5217         D2E/DX2 =    0.2937             !
 ! R68   R(64,123)               1.1008         D2E/DX2 =    0.3442             !
 ! R69   R(64,124)               1.1012         D2E/DX2 =    0.3428             !
 ! R70   R(64,125)               1.1011         D2E/DX2 =    0.3428             !
 ! R71   R(65,72)                1.0985         D2E/DX2 =    0.3508             !
 ! R72   R(66,69)                0.9871         D2E/DX2 =    0.4627             !
 ! R73   R(67,75)                1.1002         D2E/DX2 =    0.3455             !
 ! R74   R(68,78)                2.0934         D2E/DX2 =    0.1516             !
 ! R75   R(68,121)               0.9611         D2E/DX2 =    0.5496             !
 ! R76   R(68,128)               2.7361         D2E/DX2 =    0.0643             !
 ! R77   R(70,80)                1.4847         D2E/DX2 =    0.3125             !
 ! R78   R(70,126)               1.0985         D2E/DX2 =    0.3461             !
 ! R79   R(70,127)               1.0966         D2E/DX2 =    0.3517             !
 ! R80   R(71,72)                1.1033         D2E/DX2 =    0.3361             !
 ! R81   R(72,74)                1.1006         D2E/DX2 =    0.3439             !
 ! R82   R(72,82)                1.5291         D2E/DX2 =    0.2918             !
 ! R83   R(73,75)                1.0979         D2E/DX2 =    0.3515             !
 ! R84   R(75,76)                1.1044         D2E/DX2 =    0.3328             !
 ! R85   R(75,86)                1.531          D2E/DX2 =    0.2958             !
 ! R86   R(77,81)                1.1017         D2E/DX2 =    0.3384             !
 ! R87   R(78,87)                2.2973         D2E/DX2 =    0.1472             !
 ! R88   R(78,95)                1.8188         D2E/DX2 =    0.2851             !
 ! R89   R(78,102)               2.1328         D2E/DX2 =    0.1455             !
 ! R90   R(79,85)                1.1028         D2E/DX2 =    0.3304             !
 ! R91   R(80,81)                1.4803         D2E/DX2 =    0.3202             !
 ! R92   R(80,93)                1.48           D2E/DX2 =    0.3182             !
 ! R93   R(81,88)                1.1034         D2E/DX2 =    0.3321             !
 ! R94   R(81,101)               1.5016         D2E/DX2 =    0.3647             !
 ! R95   R(82,85)                1.5349         D2E/DX2 =    0.2852             !
 ! R96   R(82,87)                1.9117         D2E/DX2 =    0.172              !
 ! R97   R(82,96)                1.5321         D2E/DX2 =    0.2834             !
 ! R98   R(83,85)                1.104          D2E/DX2 =    0.3332             !
 ! R99   R(84,89)                1.0979         D2E/DX2 =    0.3492             !
 ! R100  R(85,104)               1.1013         D2E/DX2 =    0.3415             !
 ! R101  R(86,87)                1.9162         D2E/DX2 =    0.1714             !
 ! R102  R(86,89)                1.5273         D2E/DX2 =    0.2914             !
 ! R103  R(86,98)                1.5313         D2E/DX2 =    0.2859             !
 ! R104  R(87,108)               1.8846         D2E/DX2 =    0.1522             !
 ! R105  R(89,92)                1.1034         D2E/DX2 =    0.3356             !
 ! R106  R(89,106)               1.0994         D2E/DX2 =    0.3456             !
 ! R107  R(90,93)                1.1011         D2E/DX2 =    0.3393             !
 ! R108  R(91,103)               1.0965         D2E/DX2 =    0.3573             !
 ! R109  R(93,103)               1.5143         D2E/DX2 =    0.3113             !
 ! R110  R(93,105)               1.1081         D2E/DX2 =    0.321              !
 ! R111  R(94,96)                1.1029         D2E/DX2 =    0.3369             !
 ! R112  R(95,122)               1.1708         D2E/DX2 =    0.993              !
 ! R113  R(96,99)                1.0943         D2E/DX2 =    0.3593             !
 ! R114  R(96,110)               1.101          D2E/DX2 =    0.3431             !
 ! R115  R(97,98)                1.0957         D2E/DX2 =    0.3597             !
 ! R116  R(98,100)               1.1031         D2E/DX2 =    0.3367             !
 ! R117  R(98,113)               1.1012         D2E/DX2 =    0.3414             !
 ! R118  R(101,102)              1.3393         D2E/DX2 =    0.5921             !
 ! R119  R(101,112)              1.3917         D2E/DX2 =    0.4141             !
 ! R120  R(102,111)              1.3425         D2E/DX2 =    0.367              !
 ! R121  R(103,107)              1.0981         D2E/DX2 =    0.351              !
 ! R122  R(103,109)              1.1002         D2E/DX2 =    0.345              !
 ! R123  R(108,111)              1.5026         D2E/DX2 =    0.2675             !
 ! R124  R(108,115)              1.1018         D2E/DX2 =    0.3411             !
 ! R125  R(108,116)              1.1003         D2E/DX2 =    0.3427             !
 ! R126  R(111,117)              1.3949         D2E/DX2 =    0.4077             !
 ! R127  R(112,114)              1.0907         D2E/DX2 =    0.3664             !
 ! R128  R(112,118)              1.3936         D2E/DX2 =    0.4212             !
 ! R129  R(117,118)              1.3924         D2E/DX2 =    0.4322             !
 ! R130  R(117,119)              1.0907         D2E/DX2 =    0.3662             !
 ! R131  R(118,120)              1.0917         D2E/DX2 =    0.3648             !
 ! A1    A(1,2,3)              107.5793         D2E/DX2 =    0.0497             !
 ! A2    A(1,2,4)              107.3637         D2E/DX2 =    0.0471             !
 ! A3    A(1,2,10)             108.6798         D2E/DX2 =    0.1006             !
 ! A4    A(3,2,4)              109.213          D2E/DX2 =    0.0536             !
 ! A5    A(3,2,10)             113.0509         D2E/DX2 =    0.1032             !
 ! A6    A(4,2,10)             110.7462         D2E/DX2 =    0.1065             !
 ! A7    A(8,6,20)             114.3638         D2E/DX2 =    0.3124             !
 ! A8    A(6,8,69)             110.3457         D2E/DX2 =    0.1243             !
 ! A9    A(6,8,128)            119.2023         D2E/DX2 =    0.133              !
 ! A10   A(69,8,128)            97.3431         D2E/DX2 =    0.099              !
 ! A11   A(2,10,12)            110.798          D2E/DX2 =    0.0617             !
 ! A12   A(2,10,16)            109.1941         D2E/DX2 =    0.0592             !
 ! A13   A(2,10,22)            113.6417         D2E/DX2 =    0.1841             !
 ! A14   A(12,10,16)           107.4117         D2E/DX2 =    0.0215             !
 ! A15   A(12,10,22)           109.1924         D2E/DX2 =    0.0639             !
 ! A16   A(16,10,22)           106.3288         D2E/DX2 =    0.0618             !
 ! A17   A(5,13,11)            108.6852         D2E/DX2 =    0.0493             !
 ! A18   A(5,13,15)            108.3744         D2E/DX2 =    0.052              !
 ! A19   A(5,13,24)            111.4267         D2E/DX2 =    0.1042             !
 ! A20   A(11,13,15)           106.7407         D2E/DX2 =    0.0484             !
 ! A21   A(11,13,24)           108.8353         D2E/DX2 =    0.1023             !
 ! A22   A(15,13,24)           112.6069         D2E/DX2 =    0.1013             !
 ! A23   A(7,17,14)            107.684          D2E/DX2 =    0.0517             !
 ! A24   A(7,17,18)            108.0596         D2E/DX2 =    0.0496             !
 ! A25   A(7,17,28)            112.471          D2E/DX2 =    0.1032             !
 ! A26   A(14,17,18)           107.9912         D2E/DX2 =    0.0477             !
 ! A27   A(14,17,28)           111.3545         D2E/DX2 =    0.1014             !
 ! A28   A(18,17,28)           109.1294         D2E/DX2 =    0.1011             !
 ! A29   A(6,20,29)             97.9962         D2E/DX2 =    0.0811             !
 ! A30   A(6,20,37)            165.7417         D2E/DX2 =    0.0484             !
 ! A31   A(6,20,44)             87.072          D2E/DX2 =    0.025              !
 ! A32   A(29,20,37)            92.3316         D2E/DX2 =    0.0463             !
 ! A33   A(29,20,44)            81.5873         D2E/DX2 =    0.0388             !
 ! A34   A(37,20,44)           104.2233         D2E/DX2 =    0.0177             !
 ! A35   A(10,22,23)           108.2743         D2E/DX2 =    0.0959             !
 ! A36   A(10,22,35)           112.4262         D2E/DX2 =    0.1029             !
 ! A37   A(23,22,35)           110.2893         D2E/DX2 =    0.1032             !
 ! A38   A(19,23,22)           106.0459         D2E/DX2 =    0.0834             !
 ! A39   A(19,23,30)           108.505          D2E/DX2 =    0.0255             !
 ! A40   A(19,23,43)           106.9395         D2E/DX2 =    0.0733             !
 ! A41   A(22,23,30)           111.8097         D2E/DX2 =    0.1441             !
 ! A42   A(22,23,43)           112.455          D2E/DX2 =    0.4557             !
 ! A43   A(30,23,43)           110.7771         D2E/DX2 =    0.1114             !
 ! A44   A(13,24,27)           109.0728         D2E/DX2 =    0.03               !
 ! A45   A(13,24,29)           107.241          D2E/DX2 =    0.0324             !
 ! A46   A(13,24,38)           110.4788         D2E/DX2 =    0.0316             !
 ! A47   A(27,24,29)           107.3094         D2E/DX2 =    0.0396             !
 ! A48   A(27,24,38)           106.8431         D2E/DX2 =    0.0393             !
 ! A49   A(29,24,38)           115.7203         D2E/DX2 =    0.0385             !
 ! A50   A(21,27,24)           112.1269         D2E/DX2 =    0.1088             !
 ! A51   A(21,27,25)           107.9889         D2E/DX2 =    0.0491             !
 ! A52   A(21,27,46)           109.7977         D2E/DX2 =    0.0533             !
 ! A53   A(24,27,25)           107.823          D2E/DX2 =    0.1045             !
 ! A54   A(24,27,46)           111.8658         D2E/DX2 =    0.1031             !
 ! A55   A(25,27,46)           107.0105         D2E/DX2 =    0.0478             !
 ! A56   A(17,28,29)           106.2368         D2E/DX2 =    0.0366             !
 ! A57   A(17,28,31)           108.6644         D2E/DX2 =    0.0339             !
 ! A58   A(17,28,40)           109.1124         D2E/DX2 =    0.0303             !
 ! A59   A(29,28,31)           115.6528         D2E/DX2 =    0.0391             !
 ! A60   A(29,28,40)           109.7039         D2E/DX2 =    0.0383             !
 ! A61   A(31,28,40)           107.3443         D2E/DX2 =    0.0378             !
 ! A62   A(20,29,24)           117.0764         D2E/DX2 =    0.0591             !
 ! A63   A(20,29,28)           120.0834         D2E/DX2 =    0.0489             !
 ! A64   A(20,29,50)            97.9771         D2E/DX2 =    0.0254             !
 ! A65   A(24,29,28)           110.883          D2E/DX2 =    0.0751             !
 ! A66   A(24,29,50)           102.1356         D2E/DX2 =    0.0277             !
 ! A67   A(28,29,50)           105.0386         D2E/DX2 =    0.0258             !
 ! A68   A(26,31,28)           112.4578         D2E/DX2 =    0.0995             !
 ! A69   A(26,31,34)           107.1385         D2E/DX2 =    0.0481             !
 ! A70   A(26,31,48)           108.8725         D2E/DX2 =    0.0527             !
 ! A71   A(28,31,34)           108.1506         D2E/DX2 =    0.1034             !
 ! A72   A(28,31,48)           112.5767         D2E/DX2 =    0.1                !
 ! A73   A(34,31,48)           107.3744         D2E/DX2 =    0.0484             !
 ! A74   A(22,35,32)           107.1615         D2E/DX2 =    0.0654             !
 ! A75   A(22,35,45)           116.793          D2E/DX2 =    0.1953             !
 ! A76   A(22,35,47)           106.5015         D2E/DX2 =    0.0671             !
 ! A77   A(32,35,45)           109.6146         D2E/DX2 =    0.0631             !
 ! A78   A(32,35,47)           106.0177         D2E/DX2 =    0.0207             !
 ! A79   A(45,35,47)           110.1753         D2E/DX2 =    0.0607             !
 ! A80   A(24,38,36)           107.8271         D2E/DX2 =    0.1022             !
 ! A81   A(24,38,41)           113.642          D2E/DX2 =    0.0983             !
 ! A82   A(24,38,52)           112.7597         D2E/DX2 =    0.0979             !
 ! A83   A(36,38,41)           107.0956         D2E/DX2 =    0.0489             !
 ! A84   A(36,38,52)           106.7388         D2E/DX2 =    0.0474             !
 ! A85   A(41,38,52)           108.4019         D2E/DX2 =    0.053              !
 ! A86   A(28,40,39)           113.3075         D2E/DX2 =    0.1029             !
 ! A87   A(28,40,42)           108.2973         D2E/DX2 =    0.1013             !
 ! A88   A(28,40,55)           111.7625         D2E/DX2 =    0.1002             !
 ! A89   A(39,40,42)           107.0045         D2E/DX2 =    0.0491             !
 ! A90   A(39,40,55)           109.0756         D2E/DX2 =    0.0534             !
 ! A91   A(42,40,55)           107.0943         D2E/DX2 =    0.0475             !
 ! A92   A(23,43,44)           114.5992         D2E/DX2 =    0.6162             !
 ! A93   A(23,43,54)           124.5471         D2E/DX2 =    0.4623             !
 ! A94   A(44,43,54)           120.7511         D2E/DX2 =    0.1044             !
 ! A95   A(20,44,43)           116.2745         D2E/DX2 =    0.2497             !
 ! A96   A(20,44,53)           121.7992         D2E/DX2 =    0.109              !
 ! A97   A(43,44,53)           121.9202         D2E/DX2 =    0.1107             !
 ! A98   A(33,45,35)           112.4061         D2E/DX2 =    0.0991             !
 ! A99   A(33,45,49)           108.1451         D2E/DX2 =    0.053              !
 ! A100  A(33,45,51)           107.3041         D2E/DX2 =    0.0477             !
 ! A101  A(35,45,49)           113.1193         D2E/DX2 =    0.0987             !
 ! A102  A(35,45,51)           108.4987         D2E/DX2 =    0.0959             !
 ! A103  A(49,45,51)           107.0786         D2E/DX2 =    0.0482             !
 ! A104  A(29,50,53)           111.4206         D2E/DX2 =    0.0459             !
 ! A105  A(29,50,57)           104.9067         D2E/DX2 =    0.0291             !
 ! A106  A(29,50,58)           114.0289         D2E/DX2 =    0.0346             !
 ! A107  A(53,50,57)           107.3201         D2E/DX2 =    0.03               !
 ! A108  A(53,50,58)           111.3421         D2E/DX2 =    0.038              !
 ! A109  A(57,50,58)           107.305          D2E/DX2 =    0.0157             !
 ! A110  A(44,53,50)           115.9804         D2E/DX2 =    0.0779             !
 ! A111  A(44,53,59)           120.0236         D2E/DX2 =    0.0936             !
 ! A112  A(50,53,59)           123.974          D2E/DX2 =    0.1427             !
 ! A113  A(43,54,56)           120.2917         D2E/DX2 =    0.0845             !
 ! A114  A(43,54,60)           118.472          D2E/DX2 =    0.1064             !
 ! A115  A(56,54,60)           121.2325         D2E/DX2 =    0.0846             !
 ! A116  A(53,59,60)           118.9857         D2E/DX2 =    0.0846             !
 ! A117  A(53,59,61)           120.0721         D2E/DX2 =    0.0796             !
 ! A118  A(60,59,61)           120.9412         D2E/DX2 =    0.0796             !
 ! A119  A(54,60,59)           119.8358         D2E/DX2 =    0.0824             !
 ! A120  A(54,60,62)           120.1274         D2E/DX2 =    0.0805             !
 ! A121  A(59,60,62)           120.0365         D2E/DX2 =    0.0805             !
 ! A122  A(70,64,123)          108.3542         D2E/DX2 =    0.0947             !
 ! A123  A(70,64,124)          112.8496         D2E/DX2 =    0.0989             !
 ! A124  A(70,64,125)          113.0951         D2E/DX2 =    0.0985             !
 ! A125  A(123,64,124)         106.8874         D2E/DX2 =    0.0476             !
 ! A126  A(123,64,125)         107.1224         D2E/DX2 =    0.0479             !
 ! A127  A(124,64,125)         108.1998         D2E/DX2 =    0.0534             !
 ! A128  A(9,66,69)            100.8193         D2E/DX2 =    0.1605             !
 ! A129  A(78,68,121)          106.504          D2E/DX2 =    0.2994             !
 ! A130  A(78,68,128)           37.7048         D2E/DX2 =    1.1826             !
 ! A131  A(121,68,128)          70.1981         D2E/DX2 =    0.2756             !
 ! A132  A(64,70,80)           116.1688         D2E/DX2 =    0.1859             !
 ! A133  A(64,70,126)          111.1023         D2E/DX2 =    0.0572             !
 ! A134  A(64,70,127)          109.8065         D2E/DX2 =    0.0617             !
 ! A135  A(80,70,126)          104.2909         D2E/DX2 =    0.0632             !
 ! A136  A(80,70,127)          107.5959         D2E/DX2 =    0.0686             !
 ! A137  A(126,70,127)         107.4142         D2E/DX2 =    0.0218             !
 ! A138  A(65,72,71)           108.3753         D2E/DX2 =    0.0472             !
 ! A139  A(65,72,74)           108.4816         D2E/DX2 =    0.0497             !
 ! A140  A(65,72,82)           110.2941         D2E/DX2 =    0.0989             !
 ! A141  A(71,72,74)           107.6933         D2E/DX2 =    0.0495             !
 ! A142  A(71,72,82)           109.5721         D2E/DX2 =    0.1011             !
 ! A143  A(74,72,82)           112.3122         D2E/DX2 =    0.1026             !
 ! A144  A(67,75,73)           106.6256         D2E/DX2 =    0.0519             !
 ! A145  A(67,75,76)           107.7109         D2E/DX2 =    0.0487             !
 ! A146  A(67,75,86)           111.9116         D2E/DX2 =    0.1032             !
 ! A147  A(73,75,76)           109.4304         D2E/DX2 =    0.0503             !
 ! A148  A(73,75,86)           112.1179         D2E/DX2 =    0.1101             !
 ! A149  A(76,75,86)           108.9212         D2E/DX2 =    0.0997             !
 ! A150  A(68,78,87)            95.7947         D2E/DX2 =    0.0668             !
 ! A151  A(68,78,95)           171.3871         D2E/DX2 =    0.0705             !
 ! A152  A(68,78,102)           87.1701         D2E/DX2 =    0.033              !
 ! A153  A(87,78,95)            91.5637         D2E/DX2 =    0.0584             !
 ! A154  A(87,78,102)           81.1251         D2E/DX2 =    0.0363             !
 ! A155  A(95,78,102)           98.4118         D2E/DX2 =    0.0212             !
 ! A156  A(70,80,81)           109.2022         D2E/DX2 =    0.1164             !
 ! A157  A(70,80,93)           112.5277         D2E/DX2 =    0.1048             !
 ! A158  A(81,80,93)           108.8488         D2E/DX2 =    0.1089             !
 ! A159  A(77,81,80)           105.621          D2E/DX2 =    0.0965             !
 ! A160  A(77,81,88)           109.7472         D2E/DX2 =    0.0267             !
 ! A161  A(77,81,101)          106.3296         D2E/DX2 =    0.089              !
 ! A162  A(80,81,88)           111.3901         D2E/DX2 =    0.1539             !
 ! A163  A(80,81,101)          113.4209         D2E/DX2 =    0.6402             !
 ! A164  A(88,81,101)          110.0719         D2E/DX2 =    0.1214             !
 ! A165  A(72,82,85)           109.1981         D2E/DX2 =    0.0299             !
 ! A166  A(72,82,87)           107.3271         D2E/DX2 =    0.0306             !
 ! A167  A(72,82,96)           110.298          D2E/DX2 =    0.0314             !
 ! A168  A(85,82,87)           106.8992         D2E/DX2 =    0.0402             !
 ! A169  A(85,82,96)           107.0098         D2E/DX2 =    0.0393             !
 ! A170  A(87,82,96)           115.9273         D2E/DX2 =    0.0377             !
 ! A171  A(79,85,82)           110.6763         D2E/DX2 =    0.1177             !
 ! A172  A(79,85,83)           109.1332         D2E/DX2 =    0.0493             !
 ! A173  A(79,85,104)          110.5836         D2E/DX2 =    0.0535             !
 ! A174  A(82,85,83)           107.8073         D2E/DX2 =    0.1068             !
 ! A175  A(82,85,104)          111.5929         D2E/DX2 =    0.1058             !
 ! A176  A(83,85,104)          106.9066         D2E/DX2 =    0.0479             !
 ! A177  A(75,86,87)           105.5634         D2E/DX2 =    0.0375             !
 ! A178  A(75,86,89)           109.0672         D2E/DX2 =    0.0339             !
 ! A179  A(75,86,98)           109.281          D2E/DX2 =    0.0298             !
 ! A180  A(87,86,89)           116.0231         D2E/DX2 =    0.0395             !
 ! A181  A(87,86,98)           109.6682         D2E/DX2 =    0.0393             !
 ! A182  A(89,86,98)           107.1225         D2E/DX2 =    0.0386             !
 ! A183  A(78,87,82)           117.2321         D2E/DX2 =    0.059              !
 ! A184  A(78,87,86)           120.4706         D2E/DX2 =    0.0601             !
 ! A185  A(78,87,108)           98.0847         D2E/DX2 =    0.0261             !
 ! A186  A(82,87,86)           110.2236         D2E/DX2 =    0.08               !
 ! A187  A(82,87,108)          101.7656         D2E/DX2 =    0.0284             !
 ! A188  A(86,87,108)          105.4647         D2E/DX2 =    0.0265             !
 ! A189  A(84,89,86)           112.4266         D2E/DX2 =    0.0985             !
 ! A190  A(84,89,92)           107.0227         D2E/DX2 =    0.0478             !
 ! A191  A(84,89,106)          108.8645         D2E/DX2 =    0.0526             !
 ! A192  A(86,89,92)           108.0365         D2E/DX2 =    0.1029             !
 ! A193  A(86,89,106)          112.8503         D2E/DX2 =    0.0992             !
 ! A194  A(92,89,106)          107.349          D2E/DX2 =    0.0483             !
 ! A195  A(80,93,90)           106.6035         D2E/DX2 =    0.0642             !
 ! A196  A(80,93,103)          114.5889         D2E/DX2 =    0.1903             !
 ! A197  A(80,93,105)          108.9251         D2E/DX2 =    0.0637             !
 ! A198  A(90,93,103)          110.3875         D2E/DX2 =    0.0628             !
 ! A199  A(90,93,105)          106.584          D2E/DX2 =    0.0213             !
 ! A200  A(103,93,105)         109.4227         D2E/DX2 =    0.0641             !
 ! A201  A(82,96,94)           107.8052         D2E/DX2 =    0.1017             !
 ! A202  A(82,96,99)           113.9575         D2E/DX2 =    0.098              !
 ! A203  A(82,96,110)          112.5269         D2E/DX2 =    0.098              !
 ! A204  A(94,96,99)           107.2071         D2E/DX2 =    0.0491             !
 ! A205  A(94,96,110)          106.6311         D2E/DX2 =    0.0471             !
 ! A206  A(99,96,110)          108.3292         D2E/DX2 =    0.0529             !
 ! A207  A(86,98,97)           113.3901         D2E/DX2 =    0.1026             !
 ! A208  A(86,98,100)          108.1381         D2E/DX2 =    0.1012             !
 ! A209  A(86,98,113)          111.8587         D2E/DX2 =    0.1002             !
 ! A210  A(97,98,100)          107.1391         D2E/DX2 =    0.0492             !
 ! A211  A(97,98,113)          109.0337         D2E/DX2 =    0.0535             !
 ! A212  A(100,98,113)         106.9705         D2E/DX2 =    0.0474             !
 ! A213  A(81,101,102)         114.5694         D2E/DX2 =    0.6375             !
 ! A214  A(81,101,112)         124.5584         D2E/DX2 =    0.4825             !
 ! A215  A(102,101,112)        120.7326         D2E/DX2 =    0.1059             !
 ! A216  A(78,102,101)         115.8892         D2E/DX2 =    0.2608             !
 ! A217  A(78,102,111)         122.1612         D2E/DX2 =    0.1088             !
 ! A218  A(101,102,111)        121.8954         D2E/DX2 =    0.1155             !
 ! A219  A(91,103,93)          111.7642         D2E/DX2 =    0.1006             !
 ! A220  A(91,103,107)         107.2875         D2E/DX2 =    0.0518             !
 ! A221  A(91,103,109)         107.965          D2E/DX2 =    0.0478             !
 ! A222  A(93,103,107)         112.5221         D2E/DX2 =    0.1047             !
 ! A223  A(93,103,109)         108.9586         D2E/DX2 =    0.0984             !
 ! A224  A(107,103,109)        108.1836         D2E/DX2 =    0.05               !
 ! A225  A(87,108,111)         110.7813         D2E/DX2 =    0.0467             !
 ! A226  A(87,108,115)         104.876          D2E/DX2 =    0.0287             !
 ! A227  A(87,108,116)         114.4229         D2E/DX2 =    0.0341             !
 ! A228  A(111,108,115)        107.6482         D2E/DX2 =    0.03               !
 ! A229  A(111,108,116)        111.3108         D2E/DX2 =    0.0384             !
 ! A230  A(115,108,116)        107.3175         D2E/DX2 =    0.0159             !
 ! A231  A(102,111,108)        116.0088         D2E/DX2 =    0.0785             !
 ! A232  A(102,111,117)        120.0779         D2E/DX2 =    0.0949             !
 ! A233  A(108,111,117)        123.8978         D2E/DX2 =    0.1464             !
 ! A234  A(101,112,114)        120.2362         D2E/DX2 =    0.0845             !
 ! A235  A(101,112,118)        118.5169         D2E/DX2 =    0.1068             !
 ! A236  A(114,112,118)        121.2435         D2E/DX2 =    0.0847             !
 ! A237  A(111,117,118)        118.9577         D2E/DX2 =    0.0849             !
 ! A238  A(111,117,119)        120.0548         D2E/DX2 =    0.0797             !
 ! A239  A(118,117,119)        120.986          D2E/DX2 =    0.0796             !
 ! A240  A(112,118,117)        119.8031         D2E/DX2 =    0.0825             !
 ! A241  A(112,118,120)        120.1525         D2E/DX2 =    0.0805             !
 ! A242  A(117,118,120)        120.0442         D2E/DX2 =    0.0805             !
 ! A243  A(8,128,68)           154.7315         D2E/DX2 =    0.243              !
 ! A244  L(20,37,63,3,-1)      175.9387         D2E/DX2 =    0.1373             !
 ! A245  L(8,69,66,1,-1)       179.1724         D2E/DX2 =    0.0465             !
 ! A246  L(78,95,122,1,-1)     176.5518         D2E/DX2 =    0.1437             !
 ! A247  L(20,37,63,3,-2)      181.0418         D2E/DX2 =    0.12               !
 ! A248  L(8,69,66,1,-2)       171.0818         D2E/DX2 =    0.0752             !
 ! A249  L(78,95,122,1,-2)     178.8378         D2E/DX2 =    0.1031             !
 ! D1    D(1,2,10,12)          -60.7363         D2E/DX2 =    0.0144             !
 ! D2    D(1,2,10,16)           57.3733         D2E/DX2 =    0.0154             !
 ! D3    D(1,2,10,22)          175.8867         D2E/DX2 =    0.0154             !
 ! D4    D(3,2,10,12)           58.6272         D2E/DX2 =    0.0152             !
 ! D5    D(3,2,10,16)          176.7369         D2E/DX2 =    0.0155             !
 ! D6    D(3,2,10,22)          -64.7497         D2E/DX2 =    0.0155             !
 ! D7    D(4,2,10,12)         -178.4426         D2E/DX2 =    0.0152             !
 ! D8    D(4,2,10,16)          -60.333          D2E/DX2 =    0.0161             !
 ! D9    D(4,2,10,22)           58.1805         D2E/DX2 =    0.0162             !
 ! D10   D(20,6,8,69)           19.1489         D2E/DX2 =    0.0783             !
 ! D11   D(20,6,8,128)         130.4596         D2E/DX2 =    0.0839             !
 ! D12   D(8,6,20,29)         -111.5689         D2E/DX2 =    0.1132             !
 ! D13   D(8,6,20,37)           24.4505         D2E/DX2 =    0.0149             !
 ! D14   D(8,6,20,44)          167.3547         D2E/DX2 =    0.0809             !
 ! D15   D(6,8,66,9)            -1.7686         D2E/DX2 =    0.0382             !
 ! D16   D(128,8,66,9)        -126.7143         D2E/DX2 =    0.0394             !
 ! D17   D(6,8,128,68)         -48.1449         D2E/DX2 =    0.0426             !
 ! D18   D(69,8,128,68)         70.1252         D2E/DX2 =    0.0459             !
 ! D19   D(2,10,22,23)        -177.7241         D2E/DX2 =    0.0297             !
 ! D20   D(2,10,22,35)          60.18           D2E/DX2 =    0.0266             !
 ! D21   D(12,10,22,23)         58.0267         D2E/DX2 =    0.028              !
 ! D22   D(12,10,22,35)        -64.0693         D2E/DX2 =    0.0249             !
 ! D23   D(16,10,22,23)        -57.5769         D2E/DX2 =    0.0272             !
 ! D24   D(16,10,22,35)       -179.6728         D2E/DX2 =    0.0265             !
 ! D25   D(5,13,24,27)          54.82           D2E/DX2 =    0.0178             !
 ! D26   D(5,13,24,29)         -61.0878         D2E/DX2 =    0.0182             !
 ! D27   D(5,13,24,38)         171.9743         D2E/DX2 =    0.0164             !
 ! D28   D(11,13,24,27)        -65.0142         D2E/DX2 =    0.0175             !
 ! D29   D(11,13,24,29)        179.0781         D2E/DX2 =    0.0178             !
 ! D30   D(11,13,24,38)         52.1402         D2E/DX2 =    0.0158             !
 ! D31   D(15,13,24,27)        176.8405         D2E/DX2 =    0.0177             !
 ! D32   D(15,13,24,29)         60.9327         D2E/DX2 =    0.0163             !
 ! D33   D(15,13,24,38)        -66.0051         D2E/DX2 =    0.0158             !
 ! D34   D(7,17,28,29)         -55.4594         D2E/DX2 =    0.0158             !
 ! D35   D(7,17,28,31)          69.5914         D2E/DX2 =    0.0157             !
 ! D36   D(7,17,28,40)        -173.6605         D2E/DX2 =    0.0166             !
 ! D37   D(14,17,28,29)         65.5164         D2E/DX2 =    0.0163             !
 ! D38   D(14,17,28,31)       -169.4328         D2E/DX2 =    0.016              !
 ! D39   D(14,17,28,40)        -52.6846         D2E/DX2 =    0.0163             !
 ! D40   D(18,17,28,29)       -175.3638         D2E/DX2 =    0.0165             !
 ! D41   D(18,17,28,31)        -50.313          D2E/DX2 =    0.0157             !
 ! D42   D(18,17,28,40)         66.4352         D2E/DX2 =    0.0164             !
 ! D43   D(6,20,29,24)          -2.3643         D2E/DX2 =    0.0199             !
 ! D44   D(6,20,29,28)         136.9939         D2E/DX2 =    0.0196             !
 ! D45   D(6,20,29,50)        -110.4263         D2E/DX2 =    0.0176             !
 ! D46   D(37,20,29,24)       -172.5084         D2E/DX2 =    0.0144             !
 ! D47   D(37,20,29,28)        -33.1501         D2E/DX2 =    0.0115             !
 ! D48   D(37,20,29,50)         79.4296         D2E/DX2 =    0.0128             !
 ! D49   D(44,20,29,24)         83.454          D2E/DX2 =    0.0228             !
 ! D50   D(44,20,29,28)       -137.1877         D2E/DX2 =    0.0185             !
 ! D51   D(44,20,29,50)        -24.608          D2E/DX2 =    0.0096             !
 ! D52   D(6,20,44,43)         -64.2052         D2E/DX2 =    0.0653             !
 ! D53   D(6,20,44,53)         116.6779         D2E/DX2 =    0.0715             !
 ! D54   D(29,20,44,43)       -162.7376         D2E/DX2 =    0.0128             !
 ! D55   D(29,20,44,53)         18.1455         D2E/DX2 =    0.0124             !
 ! D56   D(37,20,44,43)        106.9795         D2E/DX2 =    0.0384             !
 ! D57   D(37,20,44,53)        -72.1374         D2E/DX2 =    0.0381             !
 ! D58   D(10,22,23,19)         49.7673         D2E/DX2 =    0.031              !
 ! D59   D(10,22,23,30)        -68.3195         D2E/DX2 =    0.0357             !
 ! D60   D(10,22,23,43)        166.3133         D2E/DX2 =    0.0647             !
 ! D61   D(35,22,23,19)        173.1627         D2E/DX2 =    0.0382             !
 ! D62   D(35,22,23,30)         55.0759         D2E/DX2 =    0.033              !
 ! D63   D(35,22,23,43)        -70.2914         D2E/DX2 =    0.0481             !
 ! D64   D(10,22,35,32)        -67.672          D2E/DX2 =    0.0225             !
 ! D65   D(10,22,35,45)         55.6631         D2E/DX2 =    0.0221             !
 ! D66   D(10,22,35,47)        179.2065         D2E/DX2 =    0.0232             !
 ! D67   D(23,22,35,32)        171.3815         D2E/DX2 =    0.0249             !
 ! D68   D(23,22,35,45)        -65.2834         D2E/DX2 =    0.0227             !
 ! D69   D(23,22,35,47)         58.26           D2E/DX2 =    0.0217             !
 ! D70   D(19,23,43,44)         78.7461         D2E/DX2 =    0.0254             !
 ! D71   D(19,23,43,54)        -97.5807         D2E/DX2 =    0.0236             !
 ! D72   D(22,23,43,44)        -37.264          D2E/DX2 =    0.0888             !
 ! D73   D(22,23,43,54)        146.4092         D2E/DX2 =    0.0876             !
 ! D74   D(30,23,43,44)       -163.1924         D2E/DX2 =    0.0333             !
 ! D75   D(30,23,43,54)         20.4808         D2E/DX2 =    0.0253             !
 ! D76   D(13,24,27,21)        -60.6879         D2E/DX2 =    0.0153             !
 ! D77   D(13,24,27,25)         58.0576         D2E/DX2 =    0.0141             !
 ! D78   D(13,24,27,46)        175.4537         D2E/DX2 =    0.0147             !
 ! D79   D(29,24,27,21)         55.1761         D2E/DX2 =    0.0172             !
 ! D80   D(29,24,27,25)        173.9215         D2E/DX2 =    0.0156             !
 ! D81   D(29,24,27,46)        -68.6824         D2E/DX2 =    0.0154             !
 ! D82   D(38,24,27,21)        179.8765         D2E/DX2 =    0.0158             !
 ! D83   D(38,24,27,25)        -61.3781         D2E/DX2 =    0.0145             !
 ! D84   D(38,24,27,46)         56.0181         D2E/DX2 =    0.0148             !
 ! D85   D(13,24,29,20)         72.185          D2E/DX2 =    0.0153             !
 ! D86   D(13,24,29,28)        -70.7144         D2E/DX2 =    0.0153             !
 ! D87   D(13,24,29,50)        177.8104         D2E/DX2 =    0.017              !
 ! D88   D(27,24,29,20)        -44.8857         D2E/DX2 =    0.0179             !
 ! D89   D(27,24,29,28)        172.215          D2E/DX2 =    0.0172             !
 ! D90   D(27,24,29,50)         60.7398         D2E/DX2 =    0.0191             !
 ! D91   D(38,24,29,20)       -164.0288         D2E/DX2 =    0.0157             !
 ! D92   D(38,24,29,28)         53.0718         D2E/DX2 =    0.0166             !
 ! D93   D(38,24,29,50)        -58.4034         D2E/DX2 =    0.0164             !
 ! D94   D(13,24,38,36)        -72.4814         D2E/DX2 =    0.0133             !
 ! D95   D(13,24,38,41)         46.0646         D2E/DX2 =    0.0132             !
 ! D96   D(13,24,38,52)        169.9379         D2E/DX2 =    0.0131             !
 ! D97   D(27,24,38,36)         46.0415         D2E/DX2 =    0.0148             !
 ! D98   D(27,24,38,41)        164.5875         D2E/DX2 =    0.015              !
 ! D99   D(27,24,38,52)        -71.5392         D2E/DX2 =    0.0143             !
 ! D100  D(29,24,38,36)        165.4402         D2E/DX2 =    0.0148             !
 ! D101  D(29,24,38,41)        -76.0137         D2E/DX2 =    0.0149             !
 ! D102  D(29,24,38,52)         47.8595         D2E/DX2 =    0.0136             !
 ! D103  D(17,28,29,20)        -43.5557         D2E/DX2 =    0.0151             !
 ! D104  D(17,28,29,24)         98.0758         D2E/DX2 =    0.0177             !
 ! D105  D(17,28,29,50)       -152.3219         D2E/DX2 =    0.0164             !
 ! D106  D(31,28,29,20)       -164.1947         D2E/DX2 =    0.0138             !
 ! D107  D(31,28,29,24)        -22.5631         D2E/DX2 =    0.0155             !
 ! D108  D(31,28,29,50)         87.0391         D2E/DX2 =    0.0145             !
 ! D109  D(40,28,29,20)         74.2535         D2E/DX2 =    0.0168             !
 ! D110  D(40,28,29,24)       -144.115          D2E/DX2 =    0.0174             !
 ! D111  D(40,28,29,50)        -34.5127         D2E/DX2 =    0.0163             !
 ! D112  D(17,28,31,26)        -54.7963         D2E/DX2 =    0.0144             !
 ! D113  D(17,28,31,34)         63.3075         D2E/DX2 =    0.0143             !
 ! D114  D(17,28,31,48)       -178.2265         D2E/DX2 =    0.0147             !
 ! D115  D(29,28,31,26)         64.5196         D2E/DX2 =    0.0148             !
 ! D116  D(29,28,31,34)       -177.3767         D2E/DX2 =    0.0144             !
 ! D117  D(29,28,31,48)        -58.9107         D2E/DX2 =    0.0145             !
 ! D118  D(40,28,31,26)       -172.672          D2E/DX2 =    0.0152             !
 ! D119  D(40,28,31,34)        -54.5683         D2E/DX2 =    0.0146             !
 ! D120  D(40,28,31,48)         63.8978         D2E/DX2 =    0.0149             !
 ! D121  D(17,28,40,39)         66.4402         D2E/DX2 =    0.0157             !
 ! D122  D(17,28,40,42)        -52.1048         D2E/DX2 =    0.0155             !
 ! D123  D(17,28,40,55)       -169.8385         D2E/DX2 =    0.0162             !
 ! D124  D(29,28,40,39)        -49.5631         D2E/DX2 =    0.0156             !
 ! D125  D(29,28,40,42)       -168.1081         D2E/DX2 =    0.0157             !
 ! D126  D(29,28,40,55)         74.1582         D2E/DX2 =    0.0161             !
 ! D127  D(31,28,40,39)       -175.9756         D2E/DX2 =    0.0153             !
 ! D128  D(31,28,40,42)         65.4794         D2E/DX2 =    0.0148             !
 ! D129  D(31,28,40,55)        -52.2543         D2E/DX2 =    0.0154             !
 ! D130  D(20,29,50,53)         34.238          D2E/DX2 =    0.01               !
 ! D131  D(20,29,50,57)        -81.571          D2E/DX2 =    0.0193             !
 ! D132  D(20,29,50,58)        161.3185         D2E/DX2 =    0.0184             !
 ! D133  D(24,29,50,53)        -85.7796         D2E/DX2 =    0.0444             !
 ! D134  D(24,29,50,57)        158.4114         D2E/DX2 =    0.0357             !
 ! D135  D(24,29,50,58)         41.301          D2E/DX2 =    0.0333             !
 ! D136  D(28,29,50,53)        158.4153         D2E/DX2 =    0.0373             !
 ! D137  D(28,29,50,57)         42.6063         D2E/DX2 =    0.0285             !
 ! D138  D(28,29,50,58)        -74.5041         D2E/DX2 =    0.0286             !
 ! D139  D(22,35,45,33)        -62.997          D2E/DX2 =    0.015              !
 ! D140  D(22,35,45,49)         59.8429         D2E/DX2 =    0.0146             !
 ! D141  D(22,35,45,51)        178.5001         D2E/DX2 =    0.0149             !
 ! D142  D(32,35,45,33)         59.0678         D2E/DX2 =    0.015              !
 ! D143  D(32,35,45,49)       -178.0923         D2E/DX2 =    0.0146             !
 ! D144  D(32,35,45,51)        -59.4352         D2E/DX2 =    0.0147             !
 ! D145  D(47,35,45,33)        175.3648         D2E/DX2 =    0.0152             !
 ! D146  D(47,35,45,49)        -61.7953         D2E/DX2 =    0.0151             !
 ! D147  D(47,35,45,51)         56.8619         D2E/DX2 =    0.015              !
 ! D148  D(23,43,44,20)          4.9372         D2E/DX2 =    0.0362             !
 ! D149  D(23,43,44,53)       -175.9471         D2E/DX2 =    0.03               !
 ! D150  D(54,43,44,20)       -178.583          D2E/DX2 =    0.024              !
 ! D151  D(54,43,44,53)          0.5327         D2E/DX2 =    0.0145             !
 ! D152  D(23,43,54,56)         -4.2989         D2E/DX2 =    0.015              !
 ! D153  D(23,43,54,60)        174.9983         D2E/DX2 =    0.0262             !
 ! D154  D(44,43,54,56)        179.5876         D2E/DX2 =    0.0075             !
 ! D155  D(44,43,54,60)         -1.1151         D2E/DX2 =    0.0124             !
 ! D156  D(20,44,53,50)          1.1858         D2E/DX2 =    0.0134             !
 ! D157  D(20,44,53,59)        179.5473         D2E/DX2 =    0.0123             !
 ! D158  D(43,44,53,50)       -177.8813         D2E/DX2 =    0.0132             !
 ! D159  D(43,44,53,59)          0.4802         D2E/DX2 =    0.0086             !
 ! D160  D(29,50,53,44)        -25.7627         D2E/DX2 =    0.0104             !
 ! D161  D(29,50,53,59)        155.9481         D2E/DX2 =    0.0104             !
 ! D162  D(57,50,53,44)         88.5554         D2E/DX2 =    0.0164             !
 ! D163  D(57,50,53,59)        -89.7339         D2E/DX2 =    0.0133             !
 ! D164  D(58,50,53,44)       -154.2911         D2E/DX2 =    0.0161             !
 ! D165  D(58,50,53,59)         27.4196         D2E/DX2 =    0.0127             !
 ! D166  D(44,53,59,60)         -0.8715         D2E/DX2 =    0.008              !
 ! D167  D(44,53,59,61)        179.5046         D2E/DX2 =    0.007              !
 ! D168  D(50,53,59,60)        177.3524         D2E/DX2 =    0.0138             !
 ! D169  D(50,53,59,61)         -2.2716         D2E/DX2 =    0.01               !
 ! D170  D(43,54,60,59)          0.6997         D2E/DX2 =    0.0095             !
 ! D171  D(43,54,60,62)       -179.5124         D2E/DX2 =    0.0089             !
 ! D172  D(56,54,60,59)        179.9901         D2E/DX2 =    0.0122             !
 ! D173  D(56,54,60,62)         -0.2221         D2E/DX2 =    0.01               !
 ! D174  D(53,59,60,54)          0.2683         D2E/DX2 =    0.0106             !
 ! D175  D(53,59,60,62)       -179.5198         D2E/DX2 =    0.0085             !
 ! D176  D(61,59,60,54)        179.8889         D2E/DX2 =    0.0096             !
 ! D177  D(61,59,60,62)          0.1009         D2E/DX2 =    0.0095             !
 ! D178  D(123,64,70,80)       178.9126         D2E/DX2 =    0.015              !
 ! D179  D(123,64,70,126)      -62.1116         D2E/DX2 =    0.015              !
 ! D180  D(123,64,70,127)       56.5703         D2E/DX2 =    0.0151             !
 ! D181  D(124,64,70,80)        60.7533         D2E/DX2 =    0.0151             !
 ! D182  D(124,64,70,126)      179.7291         D2E/DX2 =    0.0149             !
 ! D183  D(124,64,70,127)      -61.5891         D2E/DX2 =    0.0156             !
 ! D184  D(125,64,70,80)       -62.4869         D2E/DX2 =    0.0153             !
 ! D185  D(125,64,70,126)       56.4889         D2E/DX2 =    0.0152             !
 ! D186  D(125,64,70,127)      175.1707         D2E/DX2 =    0.0153             !
 ! D187  D(121,68,78,87)       -84.5616         D2E/DX2 =    0.0406             !
 ! D188  D(121,68,78,95)        63.9941         D2E/DX2 =    0.0079             !
 ! D189  D(121,68,78,102)     -165.3386         D2E/DX2 =    0.0307             !
 ! D190  D(128,68,78,87)      -100.6152         D2E/DX2 =    0.0948             !
 ! D191  D(128,68,78,95)        47.9405         D2E/DX2 =    0.0086             !
 ! D192  D(128,68,78,102)      178.6077         D2E/DX2 =    0.0804             !
 ! D193  D(78,68,128,8)       -170.673          D2E/DX2 =    0.0459             !
 ! D194  D(121,68,128,8)        25.6951         D2E/DX2 =    0.0641             !
 ! D195  D(64,70,80,81)         60.9448         D2E/DX2 =    0.0244             !
 ! D196  D(64,70,80,93)        -60.041          D2E/DX2 =    0.0258             !
 ! D197  D(126,70,80,81)       -61.6798         D2E/DX2 =    0.0258             !
 ! D198  D(126,70,80,93)       177.3344         D2E/DX2 =    0.0263             !
 ! D199  D(127,70,80,81)      -175.557          D2E/DX2 =    0.0269             !
 ! D200  D(127,70,80,93)        63.4572         D2E/DX2 =    0.0253             !
 ! D201  D(65,72,82,85)         61.2186         D2E/DX2 =    0.0173             !
 ! D202  D(65,72,82,87)        -54.3171         D2E/DX2 =    0.0167             !
 ! D203  D(65,72,82,96)        178.545          D2E/DX2 =    0.0158             !
 ! D204  D(71,72,82,85)        -58.0031         D2E/DX2 =    0.0174             !
 ! D205  D(71,72,82,87)       -173.5388         D2E/DX2 =    0.0169             !
 ! D206  D(71,72,82,96)         59.3234         D2E/DX2 =    0.0155             !
 ! D207  D(74,72,82,85)       -177.6443         D2E/DX2 =    0.0176             !
 ! D208  D(74,72,82,87)         66.82           D2E/DX2 =    0.0166             !
 ! D209  D(74,72,82,96)        -60.3178         D2E/DX2 =    0.0157             !
 ! D210  D(67,75,86,87)        -61.8824         D2E/DX2 =    0.0158             !
 ! D211  D(67,75,86,89)         63.4372         D2E/DX2 =    0.0157             !
 ! D212  D(67,75,86,98)       -179.7595         D2E/DX2 =    0.0168             !
 ! D213  D(73,75,86,87)         57.8776         D2E/DX2 =    0.0176             !
 ! D214  D(73,75,86,89)       -176.8028         D2E/DX2 =    0.0166             !
 ! D215  D(73,75,86,98)        -59.9994         D2E/DX2 =    0.0173             !
 ! D216  D(76,75,86,87)        179.137          D2E/DX2 =    0.0168             !
 ! D217  D(76,75,86,89)        -55.5434         D2E/DX2 =    0.0156             !
 ! D218  D(76,75,86,98)         61.26           D2E/DX2 =    0.0167             !
 ! D219  D(68,78,87,82)         -4.2624         D2E/DX2 =    0.0239             !
 ! D220  D(68,78,87,86)        134.6639         D2E/DX2 =    0.0241             !
 ! D221  D(68,78,87,108)      -112.0045         D2E/DX2 =    0.0246             !
 ! D222  D(95,78,87,82)       -179.78           D2E/DX2 =    0.0158             !
 ! D223  D(95,78,87,86)        -40.8537         D2E/DX2 =    0.0119             !
 ! D224  D(95,78,87,108)        72.4779         D2E/DX2 =    0.0146             !
 ! D225  D(102,78,87,82)        81.9492         D2E/DX2 =    0.0248             !
 ! D226  D(102,78,87,86)      -139.1245         D2E/DX2 =    0.0195             !
 ! D227  D(102,78,87,108)      -25.7929         D2E/DX2 =    0.0103             !
 ! D228  D(68,78,102,101)      -66.0439         D2E/DX2 =    0.056              !
 ! D229  D(68,78,102,111)      116.588          D2E/DX2 =    0.0625             !
 ! D230  D(87,78,102,101)     -162.361          D2E/DX2 =    0.0114             !
 ! D231  D(87,78,102,111)       20.2709         D2E/DX2 =    0.0123             !
 ! D232  D(95,78,102,101)      107.3624         D2E/DX2 =    0.0495             !
 ! D233  D(95,78,102,111)      -70.0057         D2E/DX2 =    0.0488             !
 ! D234  D(70,80,81,77)         45.1252         D2E/DX2 =    0.0318             !
 ! D235  D(70,80,81,88)        -73.9726         D2E/DX2 =    0.038              !
 ! D236  D(70,80,81,101)       161.1827         D2E/DX2 =    0.0535             !
 ! D237  D(93,80,81,77)        168.3267         D2E/DX2 =    0.0427             !
 ! D238  D(93,80,81,88)         49.229          D2E/DX2 =    0.0335             !
 ! D239  D(93,80,81,101)       -75.6157         D2E/DX2 =    0.0466             !
 ! D240  D(70,80,93,90)       -172.4442         D2E/DX2 =    0.0261             !
 ! D241  D(70,80,93,103)       -50.0172         D2E/DX2 =    0.0298             !
 ! D242  D(70,80,93,105)        72.9044         D2E/DX2 =    0.0258             !
 ! D243  D(81,80,93,90)         66.3678         D2E/DX2 =    0.0286             !
 ! D244  D(81,80,93,103)      -171.2051         D2E/DX2 =    0.0393             !
 ! D245  D(81,80,93,105)       -48.2835         D2E/DX2 =    0.0308             !
 ! D246  D(77,81,101,102)       77.1112         D2E/DX2 =    0.024              !
 ! D247  D(77,81,101,112)      -98.6045         D2E/DX2 =    0.0281             !
 ! D248  D(80,81,101,102)      -38.5276         D2E/DX2 =    0.0818             !
 ! D249  D(80,81,101,112)      145.7567         D2E/DX2 =    0.0813             !
 ! D250  D(88,81,101,102)     -164.0797         D2E/DX2 =    0.0387             !
 ! D251  D(88,81,101,112)       20.2047         D2E/DX2 =    0.0246             !
 ! D252  D(72,82,85,79)        -61.7893         D2E/DX2 =    0.0157             !
 ! D253  D(72,82,85,83)         57.4974         D2E/DX2 =    0.0135             !
 ! D254  D(72,82,85,104)       174.6027         D2E/DX2 =    0.0142             !
 ! D255  D(87,82,85,79)         54.0204         D2E/DX2 =    0.0184             !
 ! D256  D(87,82,85,83)        173.3072         D2E/DX2 =    0.0149             !
 ! D257  D(87,82,85,104)       -69.5875         D2E/DX2 =    0.0148             !
 ! D258  D(96,82,85,79)        178.827          D2E/DX2 =    0.0167             !
 ! D259  D(96,82,85,83)        -61.8862         D2E/DX2 =    0.0143             !
 ! D260  D(96,82,85,104)        55.2191         D2E/DX2 =    0.0148             !
 ! D261  D(72,82,87,78)         72.2792         D2E/DX2 =    0.0158             !
 ! D262  D(72,82,87,86)        -70.6004         D2E/DX2 =    0.0168             !
 ! D263  D(72,82,87,108)       177.8693         D2E/DX2 =    0.0167             !
 ! D264  D(85,82,87,78)        -44.7727         D2E/DX2 =    0.0198             !
 ! D265  D(85,82,87,86)        172.3477         D2E/DX2 =    0.0196             !
 ! D266  D(85,82,87,108)        60.8174         D2E/DX2 =    0.0202             !
 ! D267  D(96,82,87,78)       -163.9593         D2E/DX2 =    0.0169             !
 ! D268  D(96,82,87,86)         53.1611         D2E/DX2 =    0.0184             !
 ! D269  D(96,82,87,108)       -58.3691         D2E/DX2 =    0.0167             !
 ! D270  D(72,82,96,94)        -72.4136         D2E/DX2 =    0.0131             !
 ! D271  D(72,82,96,99)         46.4488         D2E/DX2 =    0.013              !
 ! D272  D(72,82,96,110)       170.2867         D2E/DX2 =    0.0129             !
 ! D273  D(85,82,96,94)         46.2586         D2E/DX2 =    0.0149             !
 ! D274  D(85,82,96,99)        165.121          D2E/DX2 =    0.0151             !
 ! D275  D(85,82,96,110)       -71.0411         D2E/DX2 =    0.0144             !
 ! D276  D(87,82,96,94)        165.3847         D2E/DX2 =    0.0148             !
 ! D277  D(87,82,96,99)        -75.7529         D2E/DX2 =    0.0148             !
 ! D278  D(87,82,96,110)        48.085          D2E/DX2 =    0.0136             !
 ! D279  D(75,86,87,78)        -45.5471         D2E/DX2 =    0.0156             !
 ! D280  D(75,86,87,82)         95.9477         D2E/DX2 =    0.0171             !
 ! D281  D(75,86,87,108)      -154.9419         D2E/DX2 =    0.0169             !
 ! D282  D(89,86,87,78)       -166.4343         D2E/DX2 =    0.0139             !
 ! D283  D(89,86,87,82)        -24.9396         D2E/DX2 =    0.0146             !
 ! D284  D(89,86,87,108)        84.1708         D2E/DX2 =    0.0145             !
 ! D285  D(98,86,87,78)         72.0697         D2E/DX2 =    0.0167             !
 ! D286  D(98,86,87,82)       -146.4355         D2E/DX2 =    0.0161             !
 ! D287  D(98,86,87,108)       -37.3251         D2E/DX2 =    0.016              !
 ! D288  D(75,86,89,84)        -53.4813         D2E/DX2 =    0.0145             !
 ! D289  D(75,86,89,92)         64.3882         D2E/DX2 =    0.0144             !
 ! D290  D(75,86,89,106)      -177.0879         D2E/DX2 =    0.0148             !
 ! D291  D(87,86,89,84)         65.5089         D2E/DX2 =    0.0151             !
 ! D292  D(87,86,89,92)       -176.6216         D2E/DX2 =    0.0144             !
 ! D293  D(87,86,89,106)       -58.0977         D2E/DX2 =    0.0146             !
 ! D294  D(98,86,89,84)       -171.649          D2E/DX2 =    0.0151             !
 ! D295  D(98,86,89,92)        -53.7795         D2E/DX2 =    0.0145             !
 ! D296  D(98,86,89,106)        64.7443         D2E/DX2 =    0.0147             !
 ! D297  D(75,86,98,97)         64.504          D2E/DX2 =    0.0157             !
 ! D298  D(75,86,98,100)       -54.1526         D2E/DX2 =    0.0156             !
 ! D299  D(75,86,98,113)      -171.6914         D2E/DX2 =    0.0162             !
 ! D300  D(87,86,98,97)        -50.7667         D2E/DX2 =    0.0161             !
 ! D301  D(87,86,98,100)      -169.4233         D2E/DX2 =    0.016              !
 ! D302  D(87,86,98,113)        73.038          D2E/DX2 =    0.0164             !
 ! D303  D(89,86,98,97)       -177.4675         D2E/DX2 =    0.0152             !
 ! D304  D(89,86,98,100)        63.8759         D2E/DX2 =    0.0147             !
 ! D305  D(89,86,98,113)       -53.6629         D2E/DX2 =    0.0153             !
 ! D306  D(78,87,108,111)       34.6166         D2E/DX2 =    0.0103             !
 ! D307  D(78,87,108,115)      -81.2526         D2E/DX2 =    0.0206             !
 ! D308  D(78,87,108,116)      161.4325         D2E/DX2 =    0.0198             !
 ! D309  D(82,87,108,111)      -85.4957         D2E/DX2 =    0.0449             !
 ! D310  D(82,87,108,115)      158.6351         D2E/DX2 =    0.0356             !
 ! D311  D(82,87,108,116)       41.3202         D2E/DX2 =    0.0333             !
 ! D312  D(86,87,108,111)      159.4174         D2E/DX2 =    0.0456             !
 ! D313  D(86,87,108,115)       43.5482         D2E/DX2 =    0.0325             !
 ! D314  D(86,87,108,116)      -73.7667         D2E/DX2 =    0.0329             !
 ! D315  D(80,93,103,91)       -51.4518         D2E/DX2 =    0.0145             !
 ! D316  D(80,93,103,107)       69.3419         D2E/DX2 =    0.0155             !
 ! D317  D(80,93,103,109)     -170.6811         D2E/DX2 =    0.0152             !
 ! D318  D(90,93,103,91)        68.9002         D2E/DX2 =    0.0157             !
 ! D319  D(90,93,103,107)     -170.306          D2E/DX2 =    0.0154             !
 ! D320  D(90,93,103,109)      -50.3291         D2E/DX2 =    0.015              !
 ! D321  D(105,93,103,91)     -174.1048         D2E/DX2 =    0.0152             !
 ! D322  D(105,93,103,107)     -53.3111         D2E/DX2 =    0.0155             !
 ! D323  D(105,93,103,109)      66.6659         D2E/DX2 =    0.0146             !
 ! D324  D(81,101,102,78)        7.6066         D2E/DX2 =    0.0496             !
 ! D325  D(81,101,102,111)    -175.0176         D2E/DX2 =    0.0418             !
 ! D326  D(112,101,102,78)    -176.4979         D2E/DX2 =    0.0252             !
 ! D327  D(112,101,102,111)      0.8778         D2E/DX2 =    0.0155             !
 ! D328  D(81,101,112,114)      -5.2236         D2E/DX2 =    0.0171             !
 ! D329  D(81,101,112,118)     174.1129         D2E/DX2 =    0.0307             !
 ! D330  D(102,101,112,114)    179.31           D2E/DX2 =    0.0075             !
 ! D331  D(102,101,112,118)     -1.3535         D2E/DX2 =    0.0126             !
 ! D332  D(78,102,111,108)      -1.0909         D2E/DX2 =    0.0139             !
 ! D333  D(78,102,111,117)     177.5328         D2E/DX2 =    0.0134             !
 ! D334  D(101,102,111,108)   -178.3019         D2E/DX2 =    0.0128             !
 ! D335  D(101,102,111,117)      0.3218         D2E/DX2 =    0.0092             !
 ! D336  D(87,108,111,102)     -24.6897         D2E/DX2 =    0.0101             !
 ! D337  D(87,108,111,117)     156.7452         D2E/DX2 =    0.0102             !
 ! D338  D(115,108,111,102)     89.4453         D2E/DX2 =    0.0164             !
 ! D339  D(115,108,111,117)    -89.1199         D2E/DX2 =    0.0132             !
 ! D340  D(116,108,111,102)   -153.2061         D2E/DX2 =    0.0161             !
 ! D341  D(116,108,111,117)     28.2288         D2E/DX2 =    0.0127             !
 ! D342  D(102,111,117,118)     -0.9987         D2E/DX2 =    0.008              !
 ! D343  D(102,111,117,119)    179.4368         D2E/DX2 =    0.0071             !
 ! D344  D(108,111,117,118)    177.511          D2E/DX2 =    0.0132             !
 ! D345  D(108,111,117,119)     -2.0535         D2E/DX2 =    0.0097             !
 ! D346  D(101,112,118,117)      0.655          D2E/DX2 =    0.0096             !
 ! D347  D(101,112,118,120)   -179.5041         D2E/DX2 =    0.009              !
 ! D348  D(114,112,118,117)    179.9845         D2E/DX2 =    0.013              !
 ! D349  D(114,112,118,120)     -0.1746         D2E/DX2 =    0.0101             !
 ! D350  D(111,117,118,112)      0.4906         D2E/DX2 =    0.0109             !
 ! D351  D(111,117,118,120)   -179.3506         D2E/DX2 =    0.0085             !
 ! D352  D(119,117,118,112)   -179.9491         D2E/DX2 =    0.0095             !
 ! D353  D(119,117,118,120)      0.2098         D2E/DX2 =    0.0094             !
 --------------------------------------------------------------------------------
 Trust Radius=3.00D-01 FncErr=1.00D-07 GrdErr=1.00D-06 EigMax=2.50D+02 EigMin=1.00D-04
 Number of steps in this run=    743 maximum allowed number of steps=    768.
 Search for a saddle point of order  1.
 GradGradGradGradGradGradGradGradGradGradGradGradGradGradGradGradGradGrad

 Stoichiometry    C40H74N4O6P2Ru2(3)
 Framework group  C1[X(C40H74N4O6P2Ru2)]
 Deg. of freedom   378
 Full point group                 C1      NOp   1
 Largest Abelian subgroup         C1      NOp   1
 Largest concise Abelian subgroup C1      NOp   1
                         Standard orientation:                         
 ---------------------------------------------------------------------
 Center     Atomic      Atomic             Coordinates (Angstroms)
 Number     Number       Type             X           Y           Z
 ---------------------------------------------------------------------
      1          1           0       -1.351413   -0.184103   -4.756132
      2          6           0       -2.221176   -0.158854   -4.083326
      3          1           0       -3.124220   -0.096966   -4.709580
      4          1           0       -2.139211    0.754531   -3.474641
      5          1           0       -0.318726    1.263541    1.254744
      6          8           0       -1.252290   -0.742715   -0.302965
      7          1           0       -2.044007    3.711119    0.567994
      8          8           0       -0.246505   -0.249913   -1.039810
      9          1           0       -1.890111    2.237663   -1.481943
     10          6           0       -2.191584   -1.391568   -3.206635
     11          1           0        0.176393    1.427252    2.967455
     12          1           0       -2.245912   -2.311329   -3.819869
     13          6           0       -0.640960    1.607773    2.248809
     14          1           0       -3.451581    3.486266   -0.489214
     15          1           0       -0.791266    2.697060    2.206801
     16          1           0       -1.242351   -1.419801   -2.655354
     17          6           0       -3.136843    3.820313    0.508429
     18          1           0       -3.378846    4.892221    0.600791
     19          1           0       -2.036785   -2.651795   -1.057630
     20         44           0       -3.106322    0.230834   -0.595521
     21          1           0       -1.380687   -0.995504    1.658814
     22          7           0       -3.266640   -1.421635   -2.186997
     23          6           0       -3.094083   -2.640146   -1.367013
     24          6           0       -1.887013    0.860809    2.721232
     25          1           0       -0.740424   -0.854595    3.314093
     26          1           0       -2.514064    3.834083    3.152934
     27          6           0       -1.614743   -0.649056    2.674005
     28          6           0       -3.864179    3.044248    1.612118
     29         15           0       -3.273539    1.226136    1.467377
     30          1           0       -3.299471   -3.555934   -1.945836
     31          6           0       -3.587877    3.724729    2.951643
     32          1           0       -4.750685   -0.410181   -3.254487
     33          1           0       -4.296385   -2.425074   -4.698418
     34          1           0       -4.016953    4.740141    2.916146
     35          6           0       -4.621427   -1.396046   -2.791866
     36          1           0       -1.446013    0.716673    4.814646
     37          6           0       -4.524289    1.176183   -1.249238
     38          6           0       -2.200538    1.209972    4.179763
     39          1           0       -5.691365    2.592832    0.455978
     40          6           0       -5.374029    3.117924    1.365393
     41          1           0       -2.150886    2.281503    4.394792
     42          1           0       -5.653027    4.177313    1.240056
     43          6           0       -3.918069   -2.607775   -0.109807
     44          7           0       -4.006359   -1.401531    0.468703
     45          6           0       -4.939387   -2.482664   -3.808034
     46          1           0       -2.456334   -1.230509    3.081771
     47          1           0       -5.337074   -1.435912   -1.957253
     48          1           0       -4.056120    3.199984    3.795897
     49          1           0       -4.860048   -3.498719   -3.393189
     50          6           0       -4.699438    0.193501    2.141259
     51          1           0       -5.978365   -2.351691   -4.145632
     52          1           0       -3.183299    0.835187    4.505737
     53          6           0       -4.637962   -1.220279    1.639004
     54          6           0       -4.494304   -3.725257    0.484419
     55          1           0       -5.946907    2.731656    2.222280
     56          1           0       -4.423688   -4.701938    0.003819
     57          1           0       -5.606728    0.652755    1.717892
     58          1           0       -4.797102    0.225378    3.236455
     59          6           0       -5.218189   -2.306518    2.294684
     60          6           0       -5.145471   -3.566526    1.707124
     61          1           0       -5.724678   -2.161471    3.249785
     62          1           0       -5.600384   -4.426989    2.201388
     63          8           0       -5.398206    1.777097   -1.746258
     64          6           0        1.949579    4.786091   -0.603087
     65          1           0        1.769911   -0.904139    2.810234
     66          8           0       -1.008896    2.266506   -1.894130
     67          1           0        0.606089   -2.823329    0.900008
     68          8           0        2.647843    1.233417    1.580828
     69          1           0       -0.643848    1.393833   -1.612253
     70          6           0        1.826050    3.279034   -0.432494
     71          1           0        2.444326   -1.765577    4.221345
     72          6           0        2.298148   -1.813072    3.128767
     73          1           0        0.761137   -2.183041   -0.734902
     74          1           0        1.657663   -2.682038    2.914453
     75          6           0        0.990103   -3.052719   -0.105112
     76          1           0        0.440855   -3.933787   -0.481623
     77          1           0        3.883828    2.904774    0.890232
     78         44           0        2.747403    0.276046   -0.278121
     79          1           0        4.032165    0.242194    2.495324
     80          7           0        2.972577    2.469139   -0.916231
     81          6           0        4.190191    2.852619   -0.166749
     82          6           0        3.656875   -1.907909    2.433830
     83          1           0        4.598770   -0.685844    3.927369
     84          1           0        2.275357   -4.564671    1.744812
     85          6           0        4.510658   -0.694419    2.826938
     86          6           0        2.487256   -3.372098   -0.085565
     87         15           0        3.344051   -1.781168    0.552125
     88          1           0        4.571047    3.835359   -0.493449
     89          6           0        2.717269   -4.634811    0.742184
     90          1           0        3.992797    1.913384   -2.643835
     91          1           0        1.466885    1.561195   -3.033681
     92          1           0        2.220451   -5.475411    0.228282
     93          6           0        3.224723    2.650840   -2.363248
     94          1           0        4.747221   -2.976283    3.939382
     95          6           0        2.636206   -0.383383   -1.969494
     96          6           0        4.408933   -3.156655    2.905249
     97          1           0        2.879276   -2.816648   -2.186862
     98          6           0        2.958246   -3.675262   -1.510744
     99          1           0        3.798337   -4.064707    2.918109
    100          1           0        2.316834   -4.472957   -1.922012
    101          6           0        5.283755    1.826070   -0.239207
[...]
 5873,0.00012036,-0.00008698,0.00020210,0.00005952,0.00007899,-0.000000
 38,-0.00000132,-0.00000411,0.00025760,-0.00000799,-0.00001581,0.000026
 62,-0.00034442,-0.00018708,0.00000225,-0.00000309,0.00000139,-0.000404
 57,0.00071854,0.00050290,-0.00000005,-0.00000322,0.00000279,0.00007814
 ,0.00032578,0.00053788,-0.00000501,0.00000562,0.00000411,-0.00000112,0
 .00000747,0.00000473,-0.00000049,0.00000061,0.00000314,0.00000079,0.00
 000113,-0.00000050,0.00000196,-0.00000345,-0.00000033,-0.00014810,-0.0
 0002435,0.00051458,-0.00007052,0.00015073,-0.00000233,-0.00090784,-0.0
 0071530,-0.00112676,-0.00000159,-0.00000007,-0.00000033,0.00007870,-0.
 00010248,-0.00006936,-0.00000159,-0.00000051,0.00000119,-0.00081819,-0
 .00022122,-0.00186711,-0.00001255,-0.00002857,0.00004164,-0.00003282,-
 0.00007884,-0.00004861,-0.00000154,-0.00000101,-0.00000142,0.00000207,
 -0.00002554,-0.00001212,-0.00000519,0.00001008,-0.00006572,-0.00000208
 ,0.00000086,-0.00000053,-0.00000412,0.00001418,0.00001754,0.00001180,0
 .00000048,-0.00000215,-0.00002518,-0.00000507,-0.00000048,0.00000172,0
 .00000841,-0.00000900,-0.00002944,-0.00003242,-0.00003553,-0.00000048,
 0.00000129,0.00001094,-0.00000215,0.00000414,0.00000596,0.00013046,-0.
 00001730,-0.00013072,0.00001889,-0.00017107,-0.00041426,0.00022609,-0.
 00079172,0.00049361,-0.00048997,-0.00052025,0.00047248,-0.00099872,0.0
 0325291,-0.00008306,0.02280660,-0.01138885,-0.01141467,-0.11521370,0.0
 5825762,0.12581937,0.00007549,0.00006054,0.00011668,-0.00001607,0.0000
 6842,-0.00004542,-0.00006331,-0.00012065,0.00012455,-0.00013196,0.0000
 8366,-0.00006104,-0.00081717,0.00043394,0.00036470,-0.04439520,0.00948
 593,-0.03116218,-0.00001574,0.00007752,-0.00004731,0.07336162,-0.01855
 286,0.01747372,-0.00045010,0.00037601,-0.00027995,0.00007801,-0.000103
 77,-0.00133657,0.00010826,-0.00011127,-0.00050627,-0.00016909,0.000283
 36,0.00047974,-0.00029821,-0.00018396,-0.00034018,-0.00002630,0.000159
 08,-0.00011432,0.00006530,-0.00013775,0.00002223,-0.00003073,-0.001018
 76,-0.00098236,-0.00017867,-0.00011419,0.00003231,-0.00002850,-0.00019
 010,0.00001002,0.00054380,-0.00234350,-0.00019181,0.00393107,-0.002693
 57,-0.00153963,0.00045904,-0.00033706,0.00309398,-0.00046248,0.0013206
 2,0.00052339,-0.00045761,0.00032366,0.00050387,-0.00037532,0.00011576,
 -0.00025156,-0.00007866,-0.00033670,-0.00083927,0.00006136,0.00001232,
 -0.00006650,-0.00026301,0.00049217,-0.00081094,-0.00007784,0.00013475,
 -0.00052425,0.00123639,0.00229553,0.00242065,-0.00054228,0.00016860,0.
 00022579,-0.00014191,-0.00018056,0.00027867,-0.00009096,-0.00010972,-0
 .00004810,0.00008145,0.00003494,0.00002111,-0.00002211,-0.00018361,-0.
 00004945,0.00074829,0.00025174,-0.00045154,0.00001099,0.00002587,-0.00
 022193,0.00139690,0.00442880,-0.00394789,0.00053826,-0.00022890,-0.000
 05760,0.00016089,0.00013398,0.00005296,0.00003355,-0.00012440,0.000105
 34,-0.00007947,-0.00019546,-0.00008320,-0.00005168,-0.00014413,0.00002
 084,0.00089555,-0.00015451,0.00078131,-0.00029287,-0.00052173,0.000422
 05,-0.00031850,-0.00000348,0.00013134,-0.00011520,-0.00025711,-0.00037
 612,-0.00000831,-0.00004101,0.00009063,0.00002231,0.00003723,-0.000016
 85,0.00005537,0.00000859,-0.00002667,-0.00004749,-0.00030543,-0.000400
 07,-0.00008802,0.00006012,0.00011085,0.00006794,0.00003985,0.00011841,
 0.00025487,0.00038979,0.00008896,-0.00023062,-0.00010385,-0.00044801,0
 .00002570,0.00000636,-0.00005653,-0.00002211,0.00002909,0.00006113,0.0
 0013411,-0.00000378,0.00008107,-0.00016426,0.00009723,-0.00016301,-0.0
 0000318,-0.00019933,-0.00011574,0.00006654,0.00023671,0.00004292,-0.00
 005585,-0.00001792,-0.00003168,-0.00006128,0.00002112,-0.00004229,-0.0
 0232199,-0.00288716,0.00325585,0.00019344,0.00009762,0.00007575,-0.000
 30174,0.00013247,-0.00015900,0.00143225,-0.00107587,0.00050225,-0.0002
 0426,0.00002453,0.00023576,0.00283780,0.00186559,0.00234634,-0.0005776
 7,0.00144379,-0.00062400,-0.00057848,-0.00069790,-0.00039460,0.0000719
 4,0.00001149,0.00022640,-0.00010418,0.00010794,0.00022069,-0.00114597,
 0.00076525,0.00053373,0.00006409,-0.00026010,0.00005637,0.00030605,-0.
 00034852,-0.00048340,0.00018395,-0.00049581,0.00008856,0.00016330,-0.0
 0000599,-0.00019442,-0.06198050,-0.01257443,-0.00856848,0.00018199,0.0
 0008119,-0.00040180,0.00018651,0.00038752,-0.00010688,0.00005091,0.000
 04055,0.00046612,-0.00015113,-0.00095756,-0.00010029,0.00004376,-0.000
 02749,0.00028042,-0.00005006,0.00004648,0.00011273,-0.00003096,-0.0001
 2094,0.00004655,-0.00067701,0.00013506,0.00070445,0.00000659,0.0038169
 4,-0.00285411,-0.00012243,0.00028922,-0.00016721,0.00048654,-0.0002868
 9,-0.00044203,0.00024771,0.00006163,0.00011618,-0.00042802,-0.00001133
 ,0.00019226,0.00007261,-0.00035447,0.00009943,0.00011417,-0.00000264,0
 .00087977,-0.00007428,-0.00009756,0.00023526,-0.00626841,0.00523296,0.
 00832757,0.00008803,0.00034242,0.00042000,-0.00017746,0.00025648,0.000
 03026,0.00036232,-0.00009108,-0.00001585,0.00006599,-0.00012195,0.0000
 6142,0.00009396,-0.00032606,-0.00004561,-0.00225916,-0.00310858,0.0009
 8522,-0.01367415,0.00405519,0.00735075,0.00005912,-0.00005587,-0.00008
 713,0.00015916,0.00001621,-0.00011141,-0.00004988,0.00014884,-0.000254
 90,0.00004178,0.00015166,-0.00005649,-0.00005717,0.00020724,-0.0001058
 4,0.00003577,-0.00096410,0.00067074,0.00001956,-0.00000207,-0.00009782
 ,0.00006782,0.00008705,-0.00010020,-0.00130480,0.00342423,-0.00104791,
 -0.00036117,0.00089967,-0.00085974,0.00010983,0.00012563,0.00003361,-0
 .00044601,0.00012649,-0.00000904,0.00010815,0.00007513,0.00007561,-0.0
 0032090,-0.00023803,0.00008830,-0.00042735,-0.00113039,-0.00009795,-0.
 00023949,0.00009569,0.00008736,-0.00042108,-0.00002249,0.00009378,-0.0
 0007173,0.00002900,0.00007667,-0.00113554,0.00027941,-0.00015175,0.003
 17146,-0.00268134,-0.00399573,0.00009983,0.00025177,-0.00002494,-0.000
 08807,0.00003243,-0.00005271,-0.00000769,-0.00007665,-0.00004134,-0.00
 015213,-0.00021648,0.00025819,-0.00050582,0.00014795,0.00022645,0.0518
 4922,-0.00001104,-0.00000336,-0.00002413,0.00000586,-0.00003297,0.0000
 1478,0.00000509,0.00003186,-0.00002258,0.00002730,-0.00000317,-0.00000
 452,0.00027414,-0.00022479,-0.00031727,0.00920697,-0.00246469,0.007641
 85,0.00000030,-0.00000567,0.00000123,-0.01497365,0.00475211,-0.0066654
 2,0.00003931,0.00001314,0.00001757,-0.00005720,-0.00003037,0.00025890,
 -0.00000996,0.00005174,0.00010900,0.00005507,-0.00005075,-0.00010919,-
 0.00028646,-0.00021879,-0.00009857,0.00000664,-0.00002073,0.00000766,-
 0.00002349,-0.00000740,0.00000802,-0.00001665,0.00027557,0.00020403,0.
 00001743,0.00000797,0.00000315,0.00000138,0.00001840,-0.00000357,-0.00
 011927,0.00051110,0.00002076,-0.00047392,0.00134404,0.00057732,-0.0000
 0487,0.00015840,-0.00051779,0.00012920,-0.00028669,-0.00007310,0.00018
 197,-0.00012327,-0.00011969,0.00001897,-0.00010883,-0.00003928,0.00001
 711,0.00007469,0.00016456,-0.00000750,0.00000478,0.00000854,0.00002170
 ,-0.00012289,0.00023069,0.00001422,-0.00001001,0.00007322,-0.00006564,
 -0.00024584,-0.00038344,0.00011383,-0.00002411,-0.00005203,0.00001584,
 0.00002190,-0.00003321,0.00001145,0.00002124,0.00000630,-0.00001295,-0
 .00000445,-0.00000253,0.00000041,0.00001989,0.00000747,-0.00011006,-0.
 00006654,0.00008902,0.00000121,-0.00000262,0.00002350,-0.00033418,-0.0
 0125610,0.00057199,-0.00005873,0.00003000,0.00000071,-0.00002042,-0.00
 001760,-0.00001268,-0.00000486,0.00000900,-0.00000965,0.00000811,0.000
 02533,0.00000714,0.00000499,0.00001493,-0.00000241,-0.00018888,-0.0000
 0373,-0.00019685,0.00006292,0.00010978,-0.00004996,0.00005459,0.000005
 50,-0.00002226,0.00000736,0.00003375,0.00006951,0.00001093,0.00000296,
 -0.00002419,-0.00000085,-0.00000337,0.00000258,-0.00000809,-0.00000100
 ,0.00000362,0.00000801,0.00003838,0.00005149,0.00001284,-0.00001120,-0
 .00002057,-0.00001190,-0.00000461,-0.00002151,-0.00005035,-0.00005159,
 -0.00002140,0.00003843,0.00002058,0.00009192,-0.00000287,-0.00000034,0
 .00000687,0.00000675,-0.00000120,-0.00001384,-0.00001781,0.00000229,-0
 .00000576,0.00002243,-0.00001070,0.00002216,0.00000731,0.00002765,0.00
 003296,-0.00001676,-0.00003057,-0.00000824,0.00000929,0.00000201,0.000
 00147,0.00001238,-0.00000178,0.00000617,0.00033391,0.00057622,-0.00038
 135,0.00024071,0.00022529,-0.00000124,0.00005654,0.00009530,0.00011431
 ,-0.00002739,-0.00021852,-0.00005440,0.00012607,-0.00006329,-0.0000122
 0,0.00292991,-0.00040464,-0.00126339,-0.00052665,0.00013979,0.00074425
 ,-0.00043436,-0.00017671,0.00006742,0.00004363,0.00003039,-0.00007216,
 0.00000013,-0.00005072,-0.00003230,0.00052183,-0.00187279,-0.00006026,
 0.00001846,0.00000192,0.00003969,0.00011496,-0.00037495,0.00017597,0.0
 0004271,0.00028075,-0.00012638,-0.00000561,0.00003673,0.00002759,0.000
 55849,-0.03152002,0.00279762,-0.00006123,-0.00003690,0.00002195,0.0008
 2574,0.00148149,-0.00126443,0.00019578,0.00004560,0.00002170,0.0003029
 8,0.00022198,0.00004604,0.00004589,-0.00003610,-0.00003141,-0.00001469
 ,-0.00002530,-0.00002067,-0.00005035,0.00004655,-0.00006588,0.00041510
 ,0.00085671,-0.00058652,-0.00472549,0.00081825,-0.00029530,0.00004900,
 -0.00001834,-0.00002826,-0.00006133,0.00023856,0.00024155,-0.00007044,
 -0.00000047,0.00002362,0.00016779,-0.00001842,-0.00003776,-0.00003993,
 0.00014485,-0.00008852,0.00000041,0.00032059,0.00002085,0.00003391,0.0
 0002344,-0.00007505,-0.00583310,0.00120360,-0.00122547,-0.00000241,-0.
 00011289,-0.00013072,-0.00007208,-0.00008274,-0.00002044,-0.00005572,0
 .00000092,-0.00008652,-0.00000342,0.00000723,0.00003258,-0.00000116,0.
 00005415,0.00003741,-0.00109220,-0.00078742,0.00008872,-0.00253532,0.0
 0674205,0.00017839,-0.00012799,0.00006519,0.00000409,0.00003999,0.0000
 1994,-0.00001047,-0.00003373,-0.00003986,-0.00007472,0.00004222,0.0000
 3974,-0.00003285,0.00002576,-0.00003681,-0.00000109,0.00047704,-0.0004
 5591,0.00023300,0.00002341,-0.00001637,-0.00000791,0.00000538,0.000007
 23,0.00001037,0.00108782,0.00060323,-0.00024120,-0.00025318,0.00019902
 ,-0.00031265,0.00004700,0.00006786,-0.00001496,-0.00016579,0.00007646,
 -0.00001515,0.00000048,0.00000887,0.00003443,-0.00006762,0.00005047,-0
 .00000780,0.00030249,-0.00001345,-0.00015898,-0.00001893,0.00022179,-0
 .00004460,0.00006869,-0.00002473,0.00004915,0.00000726,-0.00000564,0.0
 0001615,0.00051844,0.00030453,0.00087223,0.00154435,0.00019209,0.00127
 710,0.00000840,0.00004082,-0.00002107,0.00000715,-0.00004169,-0.000001
 78,0.00001219,-0.00004997,0.00002512,-0.00004520,0.00011750,0.00003996
 ,0.00026705,-0.00023044,-0.00014660,0.01127284,0.01893071,-0.00002316,
 -0.00001961,-0.00004319,0.00002482,-0.00002622,0.00004978,0.00000960,0
 .00004534,-0.00004812,0.00004025,-0.00003990,0.00001720,0.00043414,-0.
 00021487,-0.00021410,0.01273644,-0.00140221,0.01663403,-0.00000044,-0.
 00001049,0.00001945,-0.02138975,0.00305373,-0.01871241,0.00019274,-0.0
 0012962,0.00008592,-0.00012879,-0.00004207,0.00045681,-0.00002220,0.00
 005701,0.00012758,0.00010071,-0.00007806,-0.00016886,-0.00022962,-0.00
 014966,0.00003134,0.00001500,-0.00004336,0.00002672,-0.00004457,0.0000
 0495,-0.00002620,0.00000397,0.00043743,0.00030970,0.00006187,0.0000349
 3,-0.00000696,0.00000241,0.00004867,-0.00000699,-0.00018880,0.00067913
 ,0.00005436,-0.00124675,0.00104750,0.00043700,-0.00013456,0.00013532,-
 0.00092484,0.00015563,-0.00032785,-0.00013096,0.00013859,-0.00006731,-
 0.00012374,0.00012617,-0.00014902,0.00002577,0.00003130,0.00010685,0.0
 0026761,-0.00001433,0.00000298,0.00002323,0.00012509,-0.00020815,0.000
 30601,0.00002654,-0.00004750,0.00013869,-0.00025158,-0.00060921,-0.000
 63817,0.00014721,-0.00004639,-0.00006063,0.00003652,0.00004900,-0.0000
 8177,0.00002601,0.00002956,0.00000857,-0.00002248,-0.00001030,-0.00000
 261,0.00000480,0.00004741,0.00001575,-0.00018510,-0.00007894,0.0001392
 6,0.00000402,-0.00000969,0.00005199,-0.00033019,-0.00143035,0.00111575
 ,-0.00019061,0.00010877,0.00000082,-0.00004184,-0.00003737,-0.00001179
 ,-0.00000850,0.00003655,-0.00003726,0.00002794,0.00006766,0.00003401,0
 .00001679,0.00003738,-0.00000439,-0.00025583,0.00002066,-0.00025187,0.
 00009008,0.00017547,-0.00011828,0.00008932,0.00000472,-0.00003970,0.00
 003727,0.00010843,0.00014483,0.00001082,0.00000371,-0.00002773,-0.0000
 1035,-0.00000985,0.00000124,-0.00001523,-0.00000184,0.00000765,0.00001
 460,0.00008653,0.00010310,0.00002500,-0.00001710,-0.00003064,-0.000034
 84,-0.00001577,-0.00005269,-0.00008639,-0.00011303,-0.00003326,0.00006
 983,0.00003879,0.00013401,-0.00001343,-0.00000134,0.00001133,0.0000040
 2,-0.00000499,-0.00001755,-0.00003863,0.00000140,-0.00001913,0.0000384
 3,-0.00002518,0.00004178,-0.00000290,0.00006225,0.00003723,-0.00002250
 ,-0.00006239,-0.00002239,0.00001443,0.00000504,0.00000621,0.00001559,-
 0.00000458,0.00001176,0.00059433,0.00084307,-0.00087655,-0.00008525,-0
 .00013789,0.00000425,0.00012395,-0.00000486,0.00009608,-0.00062485,0.0
 0033654,-0.00002651,0.00002256,-0.00004994,-0.00001739,0.00353279,-0.0
 0093397,-0.00104630,0.00090064,-0.00040748,-0.00040662,0.00018041,0.00
 001873,0.00010552,0.00000807,0.00001366,-0.00003776,-0.00004642,-0.000
 09424,-0.00003262,0.00039146,-0.00021788,-0.00005906,-0.00001542,0.000
 05924,-0.00001981,-0.00039185,0.00033185,0.00038168,-0.00000326,0.0002
 1728,-0.00012245,0.00001202,0.00009864,-0.00004497,-0.00710631,0.00572
 740,-0.02922339,-0.00021079,-0.00006466,0.00016804,-0.00084560,-0.0013
 0817,0.00102591,-0.00028102,0.00017804,0.00079987,-0.00006861,0.000168
 83,0.00004608,-0.00002743,0.00001348,-0.00004141,0.00001011,0.00000237
 ,-0.00002599,0.00005117,0.00009094,0.00002181,-0.00035405,-0.00061237,
 0.00015384,0.00301912,-0.00229380,0.00216112,0.00008838,-0.00006750,0.
 00002324,-0.00000400,-0.00010320,-0.00007499,-0.00001715,0.00006041,0.
 00000688,0.00005082,0.00009503,-0.00028890,0.00000741,-0.00001377,0.00
 004996,-0.00011007,-0.00022197,-0.00037435,0.00000393,0.00001914,-0.00
 002599,-0.00595189,-0.00244163,-0.00118043,-0.00003753,-0.00003900,-0.
 00007085,0.00000412,-0.00012669,-0.00000273,0.00003797,-0.00007647,0.0
 0010530,-0.00001227,0.00003158,-0.00002031,-0.00002951,0.00005457,-0.0
 0004960,0.00027859,0.00086879,-0.00119181,0.00475718,-0.00083963,0.007
 87574,-0.00009521,0.00005946,0.00005764,-0.00001282,0.00000864,-0.0000
 0008,0.00011027,-0.00006807,0.00013854,-0.00000480,-0.00001843,-0.0000
 0251,0.00004219,-0.00008154,0.00002541,-0.00012764,0.00079086,-0.00009
 767,0.00004099,-0.00001526,0.00006344,-0.00000054,-0.00000745,0.000021
 56,-0.00081061,-0.00134748,-0.00045215,0.00040152,-0.00054780,-0.00080
 875,-0.00002581,-0.00000728,-0.00002638,0.00013176,-0.00000056,0.00010
 452,-0.00002395,0.00001383,-0.00004788,0.00024648,0.00002005,0.0000200
 1,0.00013355,-0.00011312,-0.00091100,-0.00033880,-0.00006209,0.0002286
 9,0.00003691,0.00002405,0.00009040,0.00004095,0.00002185,0.00005703,0.
 00097135,0.00059386,0.00108237,0.00124225,0.00216429,0.00254609,-0.000
 03498,-0.00010615,0.00001707,0.00002993,-0.00001793,0.00002813,0.00003
 119,-0.00003490,0.00000752,-0.00001154,0.00006317,0.00006457,0.0001821
 8,0.00003991,-0.00014168,0.01002885,-0.00164934,0.02115035\\0.00000044
 ,-0.00000162,0.00000070,0.00000058,-0.00000148,0.00000044,0.00000048,-
 0.00000183,0.00000053,0.00000060,-0.00000132,0.00000012,0.00000018,0.0
 0000054,-0.00000141,-0.00000096,0.00000373,0.00000182,-0.00000031,-0.0
 0000010,-0.00000143,0.01366949,-0.00459997,-0.00829066,0.00000010,-0.0
 0000069,-0.00000077,0.00000056,-0.00000092,0.00000083,-0.00000055,0.00
 000045,-0.00000093,0.00000076,-0.00000118,0.00000135,-0.00000039,0.000
 00064,-0.00000065,-0.00000006,-0.00000035,-0.00000095,-0.00000031,0.00
 000059,-0.00000071,0.00000031,-0.00000099,0.00000083,-0.00000029,-0.00
 000025,-0.00000123,-0.00000034,-0.00000023,-0.00000163,0.00000033,0.00
 000019,0.00000135,0.00000180,-0.00000274,-0.00000072,-0.00000027,0.000
 00056,0.00000047,0.00000026,-0.00000063,0.00000119,0.00000047,-0.00000
 022,0.00000096,-0.00000023,0.00000091,-0.00000028,-0.00000028,0.000001
 25,0.00000011,-0.00000058,0.00000072,-0.00000142,-0.00000023,0.0000011
 4,0.00000037,-0.00000020,0.00000032,-0.00000085,-0.00000027,-0.0000000
 2,-0.00000082,0.00000024,-0.00000037,0.00000175,-0.00000057,0.00000073
 ,-0.00000143,0.00000067,-0.00000108,0.00000075,0.00000054,-0.00000150,
 0.00000175,-0.00000060,0.00000070,-0.00000164,0.00000048,-0.00000056,0
 .00000104,-0.00000058,0.00000172,-0.00000056,-0.00000070,0.00000049,0.
 00000030,-0.00000032,0.00000185,-0.00000078,-0.00000025,0.00000011,-0.
 00000075,-0.00000030,0.00000028,-0.00000092,-0.00000033,0.00000166,-0.
 00000127,-0.00000034,0.00000020,-0.00000121,0.00000013,0.,0.00000143,-
 0.00000045,0.00000018,0.00000077,0.00000059,-0.00000107,0.00000164,-0.
 00000026,0.00000132,0.00000038,0.00000025,-0.00000051,0.00000120,-0.00
 000053,0.00000135,-0.00000115,0.00000096,-0.00000069,0.00000189,-0.000
 00021,0.00000086,0.00000022,0.00000054,-0.00000104,0.00000140,-0.00000
 056,0.00000152,-0.00000045,0.00000010,0.00000084,0.00000052,0.00000037
 ,0.00000070,0.00000153,-0.00000043,0.00000062,-0.00000080,0.00000032,0
 .00000056,0.00000205,-0.00000013,0.00000076,-0.00000018,-0.00000021,0.
 00000132,-0.00000020,-0.00000009,0.00000120,0.00000105,0.00000010,0.00
 000118,0.00000156,-0.00000014,0.00000153,0.00000088,0.00000010,0.00000
 138,0.00000181,0.00000012,-0.00000068,-0.00000013,-0.00000025,-0.00000
 089,-0.00000177,-0.00000024,0.00000102,-0.00000024,-0.00000001,-0.0000
 0065,-0.00000015,0.00000012,0.00000021,0.00000089,0.00000771,-0.000011
 62,0.00000939,-0.00000087,-0.00000072,-0.00000088,-0.00000018,-0.00000
 056,-0.00000154,-0.00000042,0.00000177,0.00000008,-0.00000022,0.000001
 22,0.00000028,0.00000017,-0.00000011,0.00000088,-0.00000040,0.00000120
 ,0.00000082,0.00000028,0.00000024,0.00000151,0.00000030,0.00000013,0.0
 0000136,-0.00000023,-0.00000038,-0.00000133,-0.00001721,0.00000879,-0.
 00000727,-0.00000011,0.00000065,-0.00000050,-0.00000022,-0.00000018,-0
 .00000119,-0.00000009,-0.00000036,-0.00000152,0.00000025,0.00000154,0.
 00000027,-0.00000053,0.00000119,-0.00000034,0.00000052,0.00000081,0.00
 000138,-0.00000047,0.00000084,-0.00000023,0.00000052,0.00000025,0.0000
 0125,0.00000053,0.00000064,0.00000029,-0.00000010,-0.00000068,-0.00000
 153,-0.00000021,0.00000048,0.00000140,0.00000030,-0.00000145,-0.000000
 66,0.00000023,-0.00000144,-0.00000027,0.00000006,0.00000036,0.00000174
 ,0.00000008,-0.00000149,-0.00000096,-0.00000002,0.00000148,0.00000055,
 0.00000918,-0.00000703,0.00000416,-0.00000006,0.00000105,0.00000055,0.
 00000030,-0.00000057,0.00000103,0.00000074,-0.00000030,0.00000100,-0.0
 0000017,0.00000112,0.00000080,0.00000052,-0.00000038,0.00000165,-0.000
 00018,-0.00000038,-0.00000085,0.00000025,-0.00000042,-0.00000061,0.000
 00023,-0.00000149,-0.00000076,-0.00000024,0.00000067,-0.00000060,-0.00
 000019,-0.00000161,-0.00000145,0.00000015,0.00000086,0.00000178,0.0000
 0009,-0.00000163,-0.00000093,-0.00000028,-0.00000017,0.00000099,0.0000
 0030,-0.00000187,-0.00000072,0.00000003,0.00000112,0.00000099,-0.00000
 013,-0.00000032,-0.00000011,-0.00000025,-0.00000061,-0.00000129,0.0000
 0048,-0.00000032,0.00000143,-0.00000019,-0.00000073,-0.00000156,0.0000
 0034,-0.00000033,0.00000029,-0.00000010,-0.00000020,0.00000027,0.00000
 006,-0.00000025,-0.00000013,-0.00000013,-0.00000049,-0.00000084,0.0000
 0004,-0.00000026,-0.00000012,-0.00000008,-0.00000057,-0.00000101,0.000
 00084,0.00000386,-0.00000341,0.00000048,-0.00000119,0.00000038,-0.0000
 0029,-0.00000072,-0.00000205,-0.00000013,-0.00000120,-0.00000180,-0.00
 000026,-0.00000067,-0.00000204,-0.00000042,-0.00000010,-0.00000145,0.0
 0000013,-0.00000088,-0.00000099,-0.01366993,0.00460168,0.00828661\\\@


 IF YOU DON'T HAVE THE LAW - ARGUE THE FACTS.
 IF YOU DON'T HAVE THE FACTS - ARGUE THE LAW.
 IF YOU DON'T HAVE EITHER - POUND THE TABLE.
 Job cpu time:      23 days  6 hours 13 minutes 29.8 seconds.
 Elapsed time:       1 days  4 hours  6 minutes 13.6 seconds.
 File lengths (MBytes):  RWF=  33957 Int=      0 D2E=      0 Chk=    157 Scr=      1
 Normal termination of Gaussian 16 at Sun Jul 19 06:20:21 2020.
