 Entering Gaussian System, Link 0=g16
 Initial command:
 /cluster/chemistry/gaussian/g16/l1.exe "/scratch/js1212.757595/scratch/Gau-16249.inp" -scrdir="/scratch/js1212.757595/scratch/"
 Entering Link 1 = /cluster/chemistry/gaussian/g16/l1.exe PID=     16250.
  
 Copyright (c) 1988,1990,1992,1993,1995,1998,2003,2009,2016,
            Gaussian, Inc.  All Rights Reserved.
  
 This is part of the Gaussian(R) 16 program.  It is based on
 the Gaussian(R) 09 system (copyright 2009, Gaussian, Inc.),
 the Gaussian(R) 03 system (copyright 2003, Gaussian, Inc.),
 the Gaussian(R) 98 system (copyright 1998, Gaussian, Inc.),
 the Gaussian(R) 94 system (copyright 1995, Gaussian, Inc.),
 the Gaussian 92(TM) system (copyright 1992, Gaussian, Inc.),
 the Gaussian 90(TM) system (copyright 1990, Gaussian, Inc.),
 the Gaussian 88(TM) system (copyright 1988, Gaussian, Inc.),
 the Gaussian 86(TM) system (copyright 1986, Carnegie Mellon
 University), and the Gaussian 82(TM) system (copyright 1983,
 Carnegie Mellon University). Gaussian is a federally registered
 trademark of Gaussian, Inc.
  
 This software contains proprietary and confidential information,
 including trade secrets, belonging to Gaussian, Inc.
  
 This software is provided under written license and may be
 used, copied, transmitted, or stored only in accord with that
 written license.
  
 The following legend is applicable only to US Government
 contracts under FAR:
  
                    RESTRICTED RIGHTS LEGEND
  
 Use, reproduction and disclosure by the US Government is
 subject to restrictions as set forth in subparagraphs (a)
 and (c) of the Commercial Computer Software - Restricted
 Rights clause in FAR 52.227-19.
  
 Gaussian, Inc.
 340 Quinnipiac St., Bldg. 40, Wallingford CT 06492
  
  
 ---------------------------------------------------------------
 Warning -- This program may not be used in any manner that
 competes with the business of Gaussian, Inc. or will provide
 assistance to any competitor of Gaussian, Inc.  The licensee
 of this program is prohibited from giving any competitor of
 Gaussian, Inc. access to this program.  By using this program,
 the user acknowledges that Gaussian, Inc. is engaged in the
 business of creating and licensing software in the field of
 computational chemistry and represents and warrants to the
 licensee that it is not a competitor of Gaussian, Inc. and that
 it will not use this program in any manner prohibited above.
 ---------------------------------------------------------------
  

 Cite this work as:
 Gaussian 16, Revision A.03,
 M. J. Frisch, G. W. Trucks, H. B. Schlegel, G. E. Scuseria, 
 M. A. Robb, J. R. Cheeseman, G. Scalmani, V. Barone, 
 G. A. Petersson, H. Nakatsuji, X. Li, M. Caricato, A. V. Marenich, 
 J. Bloino, B. G. Janesko, R. Gomperts, B. Mennucci, H. P. Hratchian, 
 J. V. Ortiz, A. F. Izmaylov, J. L. Sonnenberg, D. Williams-Young, 
 F. Ding, F. Lipparini, F. Egidi, J. Goings, B. Peng, A. Petrone, 
 T. Henderson, D. Ranasinghe, V. G. Zakrzewski, J. Gao, N. Rega, 
 G. Zheng, W. Liang, M. Hada, M. Ehara, K. Toyota, R. Fukuda, 
 J. Hasegawa, M. Ishida, T. Nakajima, Y. Honda, O. Kitao, H. Nakai, 
 T. Vreven, K. Throssell, J. A. Montgomery, Jr., J. E. Peralta, 
 F. Ogliaro, M. J. Bearpark, J. J. Heyd, E. N. Brothers, K. N. Kudin, 
 V. N. Staroverov, T. A. Keith, R. Kobayashi, J. Normand, 
 K. Raghavachari, A. P. Rendell, J. C. Burant, S. S. Iyengar, 
 J. Tomasi, M. Cossi, J. M. Millam, M. Klene, C. Adamo, R. Cammi, 
 J. W. Ochterski, R. L. Martin, K. Morokuma, O. Farkas, 
 J. B. Foresman, and D. J. Fox, Gaussian, Inc., Wallingford CT, 2016.
 
 ******************************************
 Gaussian 16:  ES64L-G16RevA.03 25-Dec-2016
                22-Jul-2020 
 ******************************************
 %rwf=/scratch/js1212.757595/TSHJ-Trans-R2-R2-Down-T-GP-SMD.rwf
 %nosave
 %nprocshared=20
 Will use up to   20 processors via shared memory.
 %mem=3000MB
 %oldchk=/data/js1212/200717_g16/TSHJ-Trans-R2-R2-Down-T-GPOF.chk
 %chk=/scratch/js1212.757595/TSHJ-Trans-R2-R2-Down-T-GP-SMD.chk
 Copying data from "/data/js1212/200717_g16/TSHJ-Trans-R2-R2-Down-T-GPOF.chk" to current chk file "/scratch/js1212.757595/TSHJ-Trans-R2-R2-Down-T-GP-SMD.chk"
 IOpt=  2 FromEx=T IUOpen= 4 IOptOp= 5 NList=   0 IFRang= 0 IUIn= 4 IUOut= 2.
 ----------------------------------------------------------------------
 # genecp pbe1pbe EmpiricalDispersion=GD3BJ scrf=(SMD,solvent=water) ge
 om=allcheck
 ----------------------------------------------------------------------
 1/29=7,38=1,172=1/1;
 2/12=2,40=1/2;
 3/5=7,11=2,14=-4,16=1,17=8,25=1,30=1,70=32201,72=1,74=-13,124=41/1,2,3;
 4//1;
 5/5=2,38=5,53=1/2;
 6/7=2,8=2,9=2,10=2,28=1/1;
 99/5=1,9=1/99;
 Structure from the checkpoint file:  "/scratch/js1212.757595/TSHJ-Trans-R2-R2-Down-T-GP-SMD.chk"
 -------------------
 Title Card Required
 -------------------
 Charge =  0 Multiplicity = 3
 Redundant internal coordinates found in file.  (old form).
 H,0,-0.76631883,1.3158478924,4.7210936462
 C,0,-1.7064590116,1.0636196877,4.2089237839
 H,0,-2.5136825091,1.1058490397,4.9559965832
 H,0,-1.6111698697,0.0322654511,3.8364853429
 H,0,-0.3563756824,-1.5499034333,-0.8391416488
 O,0,-1.280927608,0.7233474937,0.3007470098
 H,0,-1.7321092934,-3.8460737117,0.6686276914
 O,0,-0.1470508829,0.500225436,0.9804164801
 H,0,-1.4692218981,-1.8913593302,2.2521659076
 C,0,-1.9085553466,2.0307193864,3.0630944121
 H,0,-0.0658669713,-2.1132394785,-2.5135150066
 H,0,-1.9760656787,3.0712122186,3.434282735
 C,0,-0.7648960366,-2.1564968411,-1.6611081397
 H,0,-3.0116846494,-3.449983655,1.8327998896
 H,0,-0.800334199,-3.2062977385,-1.3331429517
 H,0,-1.0432747699,1.9777777071,2.389117779
 C,0,-2.7927005934,-4.0065689954,0.9118317259
 H,0,-2.9371135446,-5.0798339622,1.119985517
 H,0,-2.1491180503,2.7075946705,0.6726567508
 Ru,0,-2.9786463487,-0.259807472,1.0895249202
 H,0,-1.6786479835,0.4580796327,-1.6229237934
 N,0,-3.100538523,1.7305345747,2.2351947802
 C,0,-3.153034066,2.7076451376,1.1263969453
 C,0,-2.1279835657,-1.63657069,-2.1144006381
 H,0,-1.2397364514,-0.0595499634,-3.2688637295
 H,0,-2.5076886842,-4.6553015803,-1.7109203486
 C,0,-2.0024873049,-0.1504621762,-2.4774551502
 C,0,-3.72556975,-3.5863070504,-0.2294779075
 P,0,-3.3037666853,-1.7576162853,-0.620746388
 H,0,-3.3737261911,3.7257973937,1.4877097686
 C,0,-3.5533757946,-4.5671475864,-1.3879397163
 H,0,-4.332340481,0.9324416373,3.7220548018
 H,0,-3.9016147973,3.2736683053,4.5487487058
 H,0,-3.8723830721,-5.565144229,-1.0434653315
 C,0,-4.3597528803,1.7737374582,3.0191185349
 H,0,-1.9690454477,-2.0037959968,-4.2209486689
 C,0,-4.2030737197,-1.0957042177,2.1542860826
 C,0,-2.5855452497,-2.3660906754,-3.3816633428
 H,0,-5.429131248,-2.972566715,1.0355104384
 C,0,-5.177920359,-3.6910874982,0.2455217547
 H,0,-2.4573297591,-3.4515123383,-3.3335191055
 H,0,-5.3330881044,-4.6989423354,0.6650511484
 C,0,-4.1206646518,2.3025560553,0.0492940506
 N,0,-4.1613266861,0.9854461527,-0.1978929034
 C,0,-4.6533767033,3.061134594,3.7746469531
 H,0,-2.9417831852,0.2522931617,-2.8875151184
 H,0,-5.1747052993,1.5534647363,2.3136736651
 H,0,-4.1730454636,-4.3064506247,-2.2570888543
 H,0,-4.7266621427,3.9406530123,3.1175050045
 C,0,-4.8976713552,-1.0248322758,-1.3107598133
 H,0,-5.6240971883,2.9547585298,4.28158765
 H,0,-3.6336369419,-2.1510897464,-3.6420993509
 C,0,-4.9135669522,0.4712657851,-1.1833616382
 C,0,-4.8741391293,3.1919455289,-0.7091031816
 H,0,-5.8889089387,-3.5740103852,-0.5866074135
 H,0,-4.8405226214,4.2614440099,-0.4971780688
 H,0,-5.6950514369,-1.4178594048,-0.6603412405
 H,0,-5.1280440769,-1.3415357374,-2.3386898699
 C,0,-5.6756404292,1.3145668915,-1.9924216755
 C,0,-5.6544960885,2.6848428618,-1.7474277888
 H,0,-6.2810014732,0.8982640731,-2.7986573219
 H,0,-6.2503505058,3.3595932068,-2.3649281421
 O,0,-4.9440104326,-1.6045150249,2.9052832929
 C,0,2.4644863647,-4.3274089828,1.4750388743
 H,0,1.2969057347,0.2743000707,-3.1643474494
 O,0,-0.5448441989,-1.757355481,2.5257125716
 H,0,0.1973180964,2.5402096367,-1.6332202938
 O,0,2.5295629687,-1.4161304246,-1.5906178806
 H,0,-0.3058234796,-0.9643384435,1.9887984172
 C,0,2.1719598231,-2.9256247036,0.9602463691
 H,0,1.7006774323,0.7866193944,-4.8264766143
 C,0,1.6885275934,1.1031399103,-3.7695858212
 H,0,0.6186338703,2.3518818537,0.0679178031
 H,0,0.9970865373,1.9550505786,-3.6834704219
 C,0,0.679692857,3.0438118355,-0.7823093028
 H,0,0.097496755,3.954876227,-0.5570850518
 H,0,4.0012009009,-2.771831323,-0.6993220604
 Ru,0,2.76509563,-0.0096086287,-0.0582431055
 H,0,3.6832515835,-0.6053076964,-2.9122297043
 N,0,3.2840810559,-1.9468100584,1.0581166615
 C,0,4.4304868977,-2.4306472959,0.2562342608
 C,0,3.1074686189,1.45999989,-3.3253701187
 H,0,3.971265515,-0.0410811427,-4.5949970063
 H,0,1.566861203,4.1100775989,-3.1138253476
 C,0,4.0212574317,0.2437185389,-3.5295499377
 C,0,2.1235706552,3.4428137924,-1.0983253352
 P,0,3.0468362765,1.7999027744,-1.4450690418
 H,0,4.9446068037,-3.2700675996,0.7548440313
 C,0,2.121850165,4.4631512712,-2.234736195
 H,0,4.4519552492,-0.9021975903,2.4289528523
 H,0,1.9718455233,-0.6252393404,3.0842962587
 H,0,1.6126230165,5.3737539449,-1.8755390869
 C,0,3.7316737583,-1.7347437496,2.4527948101
 H,0,3.8897815427,2.1744611446,-5.1893813752
 C,0,2.8013283682,1.0527460708,1.4175857102
 C,0,3.6671649298,2.5918285398,-4.1930637827
 H,0,2.8291675088,3.4709826925,0.9942875719
 C,0,2.7372487985,4.1308047196,0.1243581278
 H,0,2.9727142283,3.424922738,-4.3388537653
 H,0,2.0766503028,4.9643853908,0.4169681371
 C,0,5.4175070725,-1.3518248532,-0.0856459164
 N,0,4.8674475021,-0.1670113275,-0.3813642332
 C,0,2.6168730073,-1.4399237118,3.4343610983
 H,0,5.0733101747,0.4861048595,-3.3118353077
 H,0,4.2927440523,-2.6288111828,2.7900833689
 H,0,3.1344398276,4.7555380518,-2.5474899248
 H,0,1.9734035804,-2.3113584632,3.614137584
 C,0,4.8579924954,2.1502276673,-1.059324097
 H,0,3.0578507427,-1.1347305235,4.3950172011
 H,0,4.614018128,2.9948243431,-3.8014763379
 C,0,5.6054109729,0.8721800946,-0.8030693789
 C,0,6.7920514446,-1.5435382035,-0.1894178241
 H,0,3.7231143335,4.5661713281,-0.1019584172
 H,0,7.2327428661,-2.5085050333,0.0642432103
 H,0,4.8412376418,2.721984947,-0.1175993744
 H,0,5.3712522799,2.7700304589,-1.8096826632
 C,0,6.9856924657,0.7351126824,-0.9511389783
 C,0,7.5798449987,-0.4839340619,-0.6352636773
 H,0,7.5836681827,1.5769193307,-1.3025657404
 H,0,8.6600324691,-0.6075079471,-0.7344236546
 H,0,1.6029741415,-1.3908676491,-1.8447571198
 O,0,2.7688669522,1.6977442853,2.3941549609
 H,0,1.5543702216,-4.9357978392,1.3601570748
 H,0,2.7275377671,-4.3440533906,2.5442207238
 H,0,3.266105424,-4.834402509,0.9157160896
 H,0,1.9181091868,-2.9417056296,-0.1084429723
 H,0,1.3121318612,-2.5051332976,1.4955084838
 H,0,1.1147974837,0.0764468537,0.2142125601
 Recover connectivity data from disk.
                           ----------------------------
                           !    Current Parameters    !
                           ! (Angstroms and Degrees)  !
 --------------------------                            --------------------------
 ! Name  Definition              Value                                          !
 --------------------------------------------------------------------------------
 ! R1    R(1,2)                  1.0999                                         !
 ! R2    R(2,3)                  1.1007                                         !
 ! R3    R(2,4)                  1.1007                                         !
 ! R4    R(2,10)                 1.513                                          !
 ! R5    R(5,13)                 1.1002                                         !
 ! R6    R(6,8)                  1.3407                                         !
 ! R7    R(6,20)                 2.1145                                         !
 ! R8    R(7,17)                 1.0999                                         !
 ! R9    R(8,69)                 1.7852                                         !
 ! R10   R(8,128)                1.5359         Frozen                          !
 ! R11   R(9,66)                 0.9733                                         !
 ! R12   R(10,12)                1.1068                                         !
 ! R13   R(10,16)                1.0981                                         !
 ! R14   R(10,22)                1.482                                          !
 ! R15   R(11,13)                1.1032                                         !
 ! R16   R(13,15)                1.1004                                         !
 ! R17   R(13,24)                1.5277                                         !
 ! R18   R(14,17)                1.0981                                         !
 ! R19   R(17,18)                1.1028                                         !
 ! R20   R(17,28)                1.5328                                         !
 ! R21   R(19,23)                1.1017                                         !
 ! R22   R(20,29)                2.2966                                         !
 ! R23   R(20,37)                1.8253                                         !
 ! R24   R(20,44)                2.1464                                         !
 ! R25   R(21,27)                1.0979                                         !
 ! R26   R(22,23)                1.4788                                         !
 ! R27   R(22,35)                1.4839                                         !
 ! R28   R(23,30)                1.1027                                         !
 ! R29   R(23,43)                1.5035                                         !
 ! R30   R(24,27)                1.535                                          !
 ! R31   R(24,29)                1.9048                                         !
 ! R32   R(24,38)                1.5322                                         !
 ! R33   R(25,27)                1.1029                                         !
 ! R34   R(26,31)                1.098                                          !
 ! R35   R(27,46)                1.1012                                         !
 ! R36   R(28,29)                1.9171                                         !
 ! R37   R(28,31)                1.5277                                         !
 ! R38   R(28,40)                1.5316                                         !
 ! R39   R(29,50)                1.8851                                         !
 ! R40   R(31,34)                1.1029                                         !
 ! R41   R(31,48)                1.0988                                         !
 ! R42   R(32,35)                1.0967                                         !
 ! R43   R(33,45)                1.0998                                         !
 ! R44   R(35,45)                1.5213                                         !
 ! R45   R(35,47)                1.1001                                         !
 ! R46   R(36,38)                1.1026                                         !
 ! R47   R(37,63)                1.1713                                         !
 ! R48   R(38,41)                1.094                                          !
 ! R49   R(38,52)                1.1012                                         !
 ! R50   R(39,40)                1.097                                          !
 ! R51   R(40,42)                1.1027                                         !
 ! R52   R(40,55)                1.1008                                         !
 ! R53   R(43,44)                1.3407                                         !
 ! R54   R(43,54)                1.3906                                         !
 ! R55   R(44,53)                1.3422                                         !
 ! R56   R(45,49)                1.1003                                         !
 ! R57   R(45,51)                1.1003                                         !
 ! R58   R(50,53)                1.5016                                         !
 ! R59   R(50,57)                1.1015                                         !
 ! R60   R(50,58)                1.1                                            !
 ! R61   R(53,59)                1.3952                                         !
 ! R62   R(54,56)                1.0908                                         !
 ! R63   R(54,60)                1.3944                                         !
 ! R64   R(59,60)                1.3922                                         !
 ! R65   R(59,61)                1.0908                                         !
 ! R66   R(60,62)                1.0916                                         !
 ! R67   R(64,70)                1.5217                                         !
 ! R68   R(64,123)               1.1007                                         !
 ! R69   R(64,124)               1.1012                                         !
 ! R70   R(64,125)               1.1011                                         !
 ! R71   R(65,72)                1.0985                                         !
 ! R72   R(66,69)                0.9871                                         !
 ! R73   R(67,75)                1.1002                                         !
 ! R74   R(68,78)                2.0933                                         !
 ! R75   R(68,121)               0.9611                                         !
 ! R76   R(68,128)               2.7362                                         !
 ! R77   R(70,80)                1.4847                                         !
 ! R78   R(70,126)               1.0985                                         !
 ! R79   R(70,127)               1.0966                                         !
 ! R80   R(71,72)                1.1033                                         !
 ! R81   R(72,74)                1.1006                                         !
 ! R82   R(72,82)                1.5291                                         !
 ! R83   R(73,75)                1.0979                                         !
 ! R84   R(75,76)                1.1044                                         !
 ! R85   R(75,86)                1.531                                          !
 ! R86   R(77,81)                1.1017                                         !
 ! R87   R(78,87)                2.2972                                         !
 ! R88   R(78,95)                1.8188                                         !
 ! R89   R(78,102)               2.1329                                         !
 ! R90   R(79,85)                1.1028                                         !
 ! R91   R(80,81)                1.4803                                         !
 ! R92   R(80,93)                1.48                                           !
 ! R93   R(81,88)                1.1034                                         !
 ! R94   R(81,101)               1.5016                                         !
 ! R95   R(82,85)                1.5349                                         !
 ! R96   R(82,87)                1.9117                                         !
 ! R97   R(82,96)                1.5321                                         !
 ! R98   R(83,85)                1.104                                          !
 ! R99   R(84,89)                1.0979                                         !
 ! R100  R(85,104)               1.1013                                         !
 ! R101  R(86,87)                1.9162                                         !
 ! R102  R(86,89)                1.5273                                         !
 ! R103  R(86,98)                1.5313                                         !
 ! R104  R(87,108)               1.8846                                         !
 ! R105  R(89,92)                1.1034                                         !
 ! R106  R(89,106)               1.0994                                         !
 ! R107  R(90,93)                1.1011                                         !
 ! R108  R(91,103)               1.0965                                         !
 ! R109  R(93,103)               1.5143                                         !
 ! R110  R(93,105)               1.1081                                         !
 ! R111  R(94,96)                1.1029                                         !
 ! R112  R(95,122)               1.1708                                         !
 ! R113  R(96,99)                1.0943                                         !
 ! R114  R(96,110)               1.101                                          !
 ! R115  R(97,98)                1.0957                                         !
 ! R116  R(98,100)               1.1031                                         !
 ! R117  R(98,113)               1.1012                                         !
 ! R118  R(101,102)              1.3393                                         !
 ! R119  R(101,112)              1.3917                                         !
 ! R120  R(102,111)              1.3425                                         !
 ! R121  R(103,107)              1.0981                                         !
 ! R122  R(103,109)              1.1002                                         !
 ! R123  R(108,111)              1.5026                                         !
 ! R124  R(108,115)              1.1018                                         !
 ! R125  R(108,116)              1.1003                                         !
 ! R126  R(111,117)              1.395                                          !
 ! R127  R(112,114)              1.0907                                         !
 ! R128  R(112,118)              1.3936                                         !
 ! R129  R(117,118)              1.3924                                         !
 ! R130  R(117,119)              1.0907                                         !
 ! R131  R(118,120)              1.0917                                         !
 ! A1    A(1,2,3)              107.5781                                         !
 ! A2    A(1,2,4)              107.3639                                         !
 ! A3    A(1,2,10)             108.6778                                         !
 ! A4    A(3,2,4)              109.2146                                         !
 ! A5    A(3,2,10)             113.0508                                         !
 ! A6    A(4,2,10)             110.7477                                         !
 ! A7    A(8,6,20)             114.3657                                         !
 ! A8    A(6,8,69)             110.345                                          !
 ! A9    A(6,8,128)            119.2004                                         !
 ! A10   A(69,8,128)            97.3828                                         !
 ! A11   A(2,10,12)            110.7983                                         !
 ! A12   A(2,10,16)            109.1939                                         !
 ! A13   A(2,10,22)            113.6431                                         !
 ! A14   A(12,10,16)           107.412                                          !
 ! A15   A(12,10,22)           109.1907                                         !
 ! A16   A(16,10,22)           106.3286                                         !
 ! A17   A(5,13,11)            108.6844                                         !
 ! A18   A(5,13,15)            108.3776                                         !
 ! A19   A(5,13,24)            111.4286                                         !
 ! A20   A(11,13,15)           106.7438                                         !
 ! A21   A(11,13,24)           108.8294                                         !
 ! A22   A(15,13,24)           112.6055                                         !
 ! A23   A(7,17,14)            107.6842                                         !
 ! A24   A(7,17,18)            108.0611                                         !
 ! A25   A(7,17,28)            112.4707                                         !
 ! A26   A(14,17,18)           107.991                                          !
 ! A27   A(14,17,28)           111.3541                                         !
 ! A28   A(18,17,28)           109.1289                                         !
 ! A29   A(6,20,29)             97.9963                                         !
 ! A30   A(6,20,37)            165.7284                                         !
 ! A31   A(6,20,44)             87.071                                          !
 ! A32   A(29,20,37)            92.337                                          !
 ! A33   A(29,20,44)            81.5868                                         !
 ! A34   A(37,20,44)           104.2384                                         !
 ! A35   A(10,22,23)           108.2745                                         !
 ! A36   A(10,22,35)           112.4264                                         !
 ! A37   A(23,22,35)           110.2877                                         !
 ! A38   A(19,23,22)           106.047                                          !
 ! A39   A(19,23,30)           108.5043                                         !
 ! A40   A(19,23,43)           106.9417                                         !
 ! A41   A(22,23,30)           111.8089                                         !
 ! A42   A(22,23,43)           112.4552                                         !
 ! A43   A(30,23,43)           110.7756                                         !
 ! A44   A(13,24,27)           109.0709                                         !
 ! A45   A(13,24,29)           107.2459                                         !
 ! A46   A(13,24,38)           110.4772                                         !
 ! A47   A(27,24,29)           107.3058                                         !
 ! A48   A(27,24,38)           106.8443                                         !
 ! A49   A(29,24,38)           115.721                                          !
 ! A50   A(21,27,24)           112.1267                                         !
 ! A51   A(21,27,25)           107.9884                                         !
 ! A52   A(21,27,46)           109.7977                                         !
 ! A53   A(24,27,25)           107.8228                                         !
 ! A54   A(24,27,46)           111.8663                                         !
 ! A55   A(25,27,46)           107.0109                                         !
 ! A56   A(17,28,29)           106.2365                                         !
 ! A57   A(17,28,31)           108.6633                                         !
 ! A58   A(17,28,40)           109.1127                                         !
 ! A59   A(29,28,31)           115.6508                                         !
 ! A60   A(29,28,40)           109.7057                                         !
 ! A61   A(31,28,40)           107.3456                                         !
 ! A62   A(20,29,24)           117.0742                                         !
 ! A63   A(20,29,28)           120.0853                                         !
 ! A64   A(20,29,50)            97.9764                                         !
 ! A65   A(24,29,28)           110.8845                                         !
 ! A66   A(24,29,50)           102.1338                                         !
 ! A67   A(28,29,50)           105.0388                                         !
 ! A68   A(26,31,28)           112.4557                                         !
 ! A69   A(26,31,34)           107.139                                          !
 ! A70   A(26,31,48)           108.8724                                         !
 ! A71   A(28,31,34)           108.1513                                         !
 ! A72   A(28,31,48)           112.5776                                         !
 ! A73   A(34,31,48)           107.3747                                         !
 ! A74   A(22,35,32)           107.1618                                         !
 ! A75   A(22,35,45)           116.7933                                         !
 ! A76   A(22,35,47)           106.5002                                         !
 ! A77   A(32,35,45)           109.6141                                         !
 ! A78   A(32,35,47)           106.0177                                         !
 ! A79   A(45,35,47)           110.1765                                         !
 ! A80   A(24,38,36)           107.8277                                         !
 ! A81   A(24,38,41)           113.6404                                         !
 ! A82   A(24,38,52)           112.7618                                         !
 ! A83   A(36,38,41)           107.0956                                         !
 ! A84   A(36,38,52)           106.7384                                         !
 ! A85   A(41,38,52)           108.4013                                         !
 ! A86   A(28,40,39)           113.307                                          !
 ! A87   A(28,40,42)           108.298                                          !
 ! A88   A(28,40,55)           111.7622                                         !
 ! A89   A(39,40,42)           107.0048                                         !
 ! A90   A(39,40,55)           109.0754                                         !
 ! A91   A(42,40,55)           107.0943                                         !
 ! A92   A(23,43,44)           114.6001                                         !
 ! A93   A(23,43,54)           124.5465                                         !
 ! A94   A(44,43,54)           120.751                                          !
 ! A95   A(20,44,43)           116.2734                                         !
 ! A96   A(20,44,53)           121.8013                                         !
 ! A97   A(43,44,53)           121.9191                                         !
 ! A98   A(33,45,35)           112.4055                                         !
 ! A99   A(33,45,49)           108.1445                                         !
 ! A100  A(33,45,51)           107.3044                                         !
 ! A101  A(35,45,49)           113.1206                                         !
 ! A102  A(35,45,51)           108.4985                                         !
 ! A103  A(49,45,51)           107.0784                                         !
 ! A104  A(29,50,53)           111.4196                                         !
 ! A105  A(29,50,57)           104.9062                                         !
 ! A106  A(29,50,58)           114.0297                                         !
 ! A107  A(53,50,57)           107.3219                                         !
 ! A108  A(53,50,58)           111.3413                                         !
 ! A109  A(57,50,58)           107.3048                                         !
 ! A110  A(44,53,50)           115.98                                           !
 ! A111  A(44,53,59)           120.0243                                         !
 ! A112  A(50,53,59)           123.9738                                         !
 ! A113  A(43,54,56)           120.2918                                         !
 ! A114  A(43,54,60)           118.4728                                         !
 ! A115  A(56,54,60)           121.2316                                         !
 ! A116  A(53,59,60)           118.9858                                         !
 ! A117  A(53,59,61)           120.0717                                         !
 ! A118  A(60,59,61)           120.9414                                         !
 ! A119  A(54,60,59)           119.8354                                         !
 ! A120  A(54,60,62)           120.1271                                         !
 ! A121  A(59,60,62)           120.0371                                         !
 ! A122  A(70,64,123)          108.3546                                         !
 ! A123  A(70,64,124)          112.8495                                         !
 ! A124  A(70,64,125)          113.0948                                         !
 ! A125  A(123,64,124)         106.8872                                         !
 ! A126  A(123,64,125)         107.1231                                         !
 ! A127  A(124,64,125)         108.1995                                         !
 ! A128  A(9,66,69)            100.82                                           !
 ! A129  A(78,68,121)          106.5213                                         !
 ! A130  A(78,68,128)           37.7016                                         !
 ! A131  A(121,68,128)          70.2209                                         !
 ! A132  A(64,70,80)           116.1679                                         !
 ! A133  A(64,70,126)          111.1029                                         !
 ! A134  A(64,70,127)          109.805                                          !
 ! A135  A(80,70,126)          104.2919                                         !
 ! A136  A(80,70,127)          107.5976                                         !
 ! A137  A(126,70,127)         107.4133                                         !
 ! A138  A(65,72,71)           108.3761                                         !
 ! A139  A(65,72,74)           108.4793                                         !
 ! A140  A(65,72,82)           110.2956                                         !
 ! A141  A(71,72,74)           107.6938                                         !
 ! A142  A(71,72,82)           109.5735                                         !
 ! A143  A(74,72,82)           112.3102                                         !
 ! A144  A(67,75,73)           106.624                                          !
 ! A145  A(67,75,76)           107.7107                                         !
 ! A146  A(67,75,86)           111.9111                                         !
 ! A147  A(73,75,76)           109.43                                           !
 ! A148  A(73,75,86)           112.1204                                         !
 ! A149  A(76,75,86)           108.9213                                         !
 ! A150  A(68,78,87)            95.8047                                         !
 ! A151  A(68,78,95)           171.3804                                         !
 ! A152  A(68,78,102)           87.1581                                         !
 ! A153  A(87,78,95)            91.5658                                         !
 ! A154  A(87,78,102)           81.1284                                         !
 ! A155  A(95,78,102)           98.4184                                         !
 ! A156  A(70,80,81)           109.2016                                         !
 ! A157  A(70,80,93)           112.5261                                         !
 ! A158  A(81,80,93)           108.8497                                         !
 ! A159  A(77,81,80)           105.622                                          !
 ! A160  A(77,81,88)           109.7481                                         !
 ! A161  A(77,81,101)          106.3279                                         !
 ! A162  A(80,81,88)           111.3889                                         !
 ! A163  A(80,81,101)          113.4244                                         !
 ! A164  A(88,81,101)          110.0695                                         !
 ! A165  A(72,82,85)           109.2002                                         !
 ! A166  A(72,82,87)           107.3255                                         !
 ! A167  A(72,82,96)           110.2973                                         !
 ! A168  A(85,82,87)           106.894                                          !
 ! A169  A(85,82,96)           107.0119                                         !
 ! A170  A(87,82,96)           115.9306                                         !
 ! A171  A(79,85,82)           110.6784                                         !
 ! A172  A(79,85,83)           109.1319                                         !
 ! A173  A(79,85,104)          110.5827                                         !
 ! A174  A(82,85,83)           107.8085                                         !
 ! A175  A(82,85,104)          111.5918                                         !
 ! A176  A(83,85,104)          106.9065                                         !
 ! A177  A(75,86,87)           105.564                                          !
 ! A178  A(75,86,89)           109.0653                                         !
 ! A179  A(75,86,98)           109.2832                                         !
 ! A180  A(87,86,89)           116.021                                          !
 ! A181  A(87,86,98)           109.6699                                         !
 ! A182  A(89,86,98)           107.1224                                         !
 ! A183  A(78,87,82)           117.2336                                         !
 ! A184  A(78,87,86)           120.4664                                         !
 ! A185  A(78,87,108)           98.0897                                         !
 ! A186  A(82,87,86)           110.2246                                         !
 ! A187  A(82,87,108)          101.7642                                         !
 ! A188  A(86,87,108)          105.4636                                         !
 ! A189  A(84,89,86)           112.4264                                         !
 ! A190  A(84,89,92)           107.0226                                         !
 ! A191  A(84,89,106)          108.8641                                         !
 ! A192  A(86,89,92)           108.0374                                         !
 ! A193  A(86,89,106)          112.8501                                         !
 ! A194  A(92,89,106)          107.349                                          !
 ! A195  A(80,93,90)           106.604                                          !
 ! A196  A(80,93,103)          114.587                                          !
 ! A197  A(80,93,105)          108.9261                                         !
 ! A198  A(90,93,103)          110.3884                                         !
 ! A199  A(90,93,105)          106.5839                                         !
 ! A200  A(103,93,105)         109.4224                                         !
 ! A201  A(82,96,94)           107.8061                                         !
 ! A202  A(82,96,99)           113.9557                                         !
 ! A203  A(82,96,110)          112.5282                                         !
 ! A204  A(94,96,99)           107.2073                                         !
 ! A205  A(94,96,110)          106.6313                                         !
 ! A206  A(99,96,110)          108.3286                                         !
 ! A207  A(86,98,97)           113.3904                                         !
 ! A208  A(86,98,100)          108.1383                                         !
 ! A209  A(86,98,113)          111.8578                                         !
 ! A210  A(97,98,100)          107.1386                                         !
 ! A211  A(97,98,113)          109.0344                                         !
 ! A212  A(100,98,113)         106.9706                                         !
 ! A213  A(81,101,102)         114.5737                                         !
 ! A214  A(81,101,112)         124.5544                                         !
 ! A215  A(102,101,112)        120.7322                                         !
 ! A216  A(78,102,101)         115.891                                          !
 ! A217  A(78,102,111)         122.1602                                         !
 ! A218  A(101,102,111)        121.8949                                         !
 ! A219  A(91,103,93)          111.7632                                         !
 ! A220  A(91,103,107)         107.2885                                         !
 ! A221  A(91,103,109)         107.9653                                         !
 ! A222  A(93,103,107)         112.5203                                         !
 ! A223  A(93,103,109)         108.9601                                         !
 ! A224  A(107,103,109)        108.1836                                         !
 ! A225  A(87,108,111)         110.7832                                         !
 ! A226  A(87,108,115)         104.8793                                         !
 ! A227  A(87,108,116)         114.4199                                         !
 ! A228  A(111,108,115)        107.6486                                         !
 ! A229  A(111,108,116)        111.3095                                         !
 ! A230  A(115,108,116)        107.3167                                         !
 ! A231  A(102,111,108)        116.0108                                         !
 ! A232  A(102,111,117)        120.0788                                         !
 ! A233  A(108,111,117)        123.8949                                         !
 ! A234  A(101,112,114)        120.2365                                         !
 ! A235  A(101,112,118)        118.5175                                         !
 ! A236  A(114,112,118)        121.2426                                         !
 ! A237  A(111,117,118)        118.9574                                         !
 ! A238  A(111,117,119)        120.0549                                         !
 ! A239  A(118,117,119)        120.9863                                         !
 ! A240  A(112,118,117)        119.8029                                         !
 ! A241  A(112,118,120)        120.1523                                         !
 ! A242  A(117,118,120)        120.0446                                         !
 ! A243  A(8,128,68)           154.7396                                         !
 ! A244  L(20,37,63,3,-1)      175.9355                                         !
 ! A245  L(8,69,66,1,-1)       179.1651                                         !
 ! A246  L(78,95,122,1,-1)     176.5518                                         !
 ! A247  L(20,37,63,3,-2)      181.0471                                         !
 ! A248  L(8,69,66,1,-2)       171.0934                                         !
 ! A249  L(78,95,122,1,-2)     178.8412                                         !
 ! D1    D(1,2,10,12)          -60.7054                                         !
 ! D2    D(1,2,10,16)           57.4046                                         !
 ! D3    D(1,2,10,22)          175.9186                                         !
 ! D4    D(3,2,10,12)           58.6552                                         !
 ! D5    D(3,2,10,16)          176.7652                                         !
 ! D6    D(3,2,10,22)          -64.7208                                         !
 ! D7    D(4,2,10,12)         -178.4115                                         !
 ! D8    D(4,2,10,16)          -60.3015                                         !
 ! D9    D(4,2,10,22)           58.2125                                         !
 ! D10   D(20,6,8,69)           19.1167                                         !
 ! D11   D(20,6,8,128)         130.4773                                         !
 ! D12   D(8,6,20,29)         -111.5496                                         !
 ! D13   D(8,6,20,37)           24.4459                                         !
 ! D14   D(8,6,20,44)          167.3745                                         !
 ! D15   D(6,8,66,9)            -1.7399                                         !
 ! D16   D(128,8,66,9)        -126.7042                                         !
 ! D17   D(6,8,128,68)         -48.356                                          !
 ! D18   D(69,8,128,68)         69.9403                                         !
 ! D19   D(2,10,22,23)        -177.7288                                         !
 ! D20   D(2,10,22,35)          60.1769                                         !
 ! D21   D(12,10,22,23)         58.0218                                         !
 ! D22   D(12,10,22,35)        -64.0725                                         !
 ! D23   D(16,10,22,23)        -57.5811                                         !
 ! D24   D(16,10,22,35)       -179.6754                                         !
 ! D25   D(5,13,24,27)          54.8252                                         !
 ! D26   D(5,13,24,29)         -61.0799                                         !
 ! D27   D(5,13,24,38)         171.979                                          !
 ! D28   D(11,13,24,27)        -65.0053                                         !
 ! D29   D(11,13,24,29)        179.0896                                         !
 ! D30   D(11,13,24,38)         52.1485                                         !
 ! D31   D(15,13,24,27)        176.8503                                         !
 ! D32   D(15,13,24,29)         60.9452                                         !
 ! D33   D(15,13,24,38)        -65.9959                                         !
 ! D34   D(7,17,28,29)         -55.4351                                         !
 ! D35   D(7,17,28,31)          69.6125                                         !
 ! D36   D(7,17,28,40)        -173.6383                                         !
 ! D37   D(14,17,28,29)         65.5404                                         !
 ! D38   D(14,17,28,31)       -169.412                                          !
 ! D39   D(14,17,28,40)        -52.6627                                         !
 ! D40   D(18,17,28,29)       -175.3407                                         !
 ! D41   D(18,17,28,31)        -50.2931                                         !
 ! D42   D(18,17,28,40)         66.4562                                         !
 ! D43   D(6,20,29,24)          -2.3686                                         !
 ! D44   D(6,20,29,28)         136.9921                                         !
 ! D45   D(6,20,29,50)        -110.4275                                         !
 ! D46   D(37,20,29,24)       -172.4992                                         !
 ! D47   D(37,20,29,28)        -33.1385                                         !
 ! D48   D(37,20,29,50)         79.4419                                         !
 ! D49   D(44,20,29,24)         83.4486                                         !
 ! D50   D(44,20,29,28)       -137.1906                                         !
 ! D51   D(44,20,29,50)        -24.6102                                         !
 ! D52   D(6,20,44,43)         -64.202                                          !
 ! D53   D(6,20,44,53)         116.6841                                         !
 ! D54   D(29,20,44,43)       -162.7347                                         !
 ! D55   D(29,20,44,53)         18.1514                                         !
 ! D56   D(37,20,44,43)        106.9791                                         !
 ! D57   D(37,20,44,53)        -72.1349                                         !
 ! D58   D(10,22,23,19)         49.7598                                         !
 ! D59   D(10,22,23,30)        -68.3263                                         !
 ! D60   D(10,22,23,43)        166.309                                          !
 ! D61   D(35,22,23,19)        173.1547                                         !
 ! D62   D(35,22,23,30)         55.0686                                         !
 ! D63   D(35,22,23,43)        -70.2961                                         !
 ! D64   D(10,22,35,32)        -67.6846                                         !
 ! D65   D(10,22,35,45)         55.6503                                         !
 ! D66   D(10,22,35,47)        179.1944                                         !
 ! D67   D(23,22,35,32)        171.3695                                         !
 ! D68   D(23,22,35,45)        -65.2955                                         !
 ! D69   D(23,22,35,47)         58.2486                                         !
 ! D70   D(19,23,43,44)         78.7527                                         !
 ! D71   D(19,23,43,54)        -97.5778                                         !
 ! D72   D(22,23,43,44)        -37.2601                                         !
 ! D73   D(22,23,43,54)        146.4095                                         !
 ! D74   D(30,23,43,44)       -163.1863                                         !
 ! D75   D(30,23,43,54)         20.4832                                         !
 ! D76   D(13,24,27,21)        -60.693                                          !
 ! D77   D(13,24,27,25)         58.0516                                         !
 ! D78   D(13,24,27,46)        175.4483                                         !
 ! D79   D(29,24,27,21)         55.1737                                         !
 ! D80   D(29,24,27,25)        173.9183                                         !
 ! D81   D(29,24,27,46)        -68.685                                          !
 ! D82   D(38,24,27,21)        179.8735                                         !
 ! D83   D(38,24,27,25)        -61.3819                                         !
 ! D84   D(38,24,27,46)         56.0148                                         !
 ! D85   D(13,24,29,20)         72.1789                                         !
 ! D86   D(13,24,29,28)        -70.7231                                         !
 ! D87   D(13,24,29,50)        177.8016                                         !
 ! D88   D(27,24,29,20)        -44.8902                                         !
 ! D89   D(27,24,29,28)        172.2078                                         !
 ! D90   D(27,24,29,50)         60.7326                                         !
 ! D91   D(38,24,29,20)       -164.0327                                         !
 ! D92   D(38,24,29,28)         53.0654                                         !
 ! D93   D(38,24,29,50)        -58.4099                                         !
 ! D94   D(13,24,38,36)        -72.4913                                         !
 ! D95   D(13,24,38,41)         46.0541                                         !
 ! D96   D(13,24,38,52)        169.9269                                         !
 ! D97   D(27,24,38,36)         46.0292                                         !
 ! D98   D(27,24,38,41)        164.5746                                         !
 ! D99   D(27,24,38,52)        -71.5526                                         !
 ! D100  D(29,24,38,36)        165.4246                                         !
 ! D101  D(29,24,38,41)        -76.03                                           !
 ! D102  D(29,24,38,52)         47.8428                                         !
 ! D103  D(17,28,29,20)        -43.5609                                         !
 ! D104  D(17,28,29,24)         98.0715                                         !
 ! D105  D(17,28,29,50)       -152.3274                                         !
 ! D106  D(31,28,29,20)       -164.197                                          !
 ! D107  D(31,28,29,24)        -22.5646                                         !
 ! D108  D(31,28,29,50)         87.0365                                         !
 ! D109  D(40,28,29,20)         74.2494                                         !
 ! D110  D(40,28,29,24)       -144.1181                                         !
 ! D111  D(40,28,29,50)        -34.5171                                         !
 ! D112  D(17,28,31,26)        -54.7897                                         !
 ! D113  D(17,28,31,34)         63.3138                                         !
 ! D114  D(17,28,31,48)       -178.2188                                         !
 ! D115  D(29,28,31,26)         64.5236                                         !
 ! D116  D(29,28,31,34)       -177.3728                                         !
 ! D117  D(29,28,31,48)        -58.9054                                         !
 ! D118  D(40,28,31,26)       -172.666                                          !
 ! D119  D(40,28,31,34)        -54.5624                                         !
 ! D120  D(40,28,31,48)         63.905                                          !
 ! D121  D(17,28,40,39)         66.4442                                         !
 ! D122  D(17,28,40,42)        -52.1013                                         !
 ! D123  D(17,28,40,55)       -169.8354                                         !
 ! D124  D(29,28,40,39)        -49.56                                           !
 ! D125  D(29,28,40,42)       -168.1055                                         !
 ! D126  D(29,28,40,55)         74.1605                                         !
 ! D127  D(31,28,40,39)       -175.9721                                         !
 ! D128  D(31,28,40,42)         65.4824                                         !
 ! D129  D(31,28,40,55)        -52.2516                                         !
 ! D130  D(20,29,50,53)         34.237                                          !
 ! D131  D(20,29,50,57)        -81.5733                                         !
 ! D132  D(20,29,50,58)        161.3163                                         !
 ! D133  D(24,29,50,53)        -85.7774                                         !
 ! D134  D(24,29,50,57)        158.4122                                         !
 ! D135  D(24,29,50,58)         41.3019                                         !
 ! D136  D(28,29,50,53)        158.4164                                         !
 ! D137  D(28,29,50,57)         42.606                                          !
 ! D138  D(28,29,50,58)        -74.5043                                         !
 ! D139  D(22,35,45,33)        -63.0204                                         !
 ! D140  D(22,35,45,49)         59.8193                                         !
 ! D141  D(22,35,45,51)        178.4768                                         !
 ! D142  D(32,35,45,33)         59.0446                                         !
 ! D143  D(32,35,45,49)       -178.1157                                         !
 ! D144  D(32,35,45,51)        -59.4582                                         !
 ! D145  D(47,35,45,33)        175.342                                          !
 ! D146  D(47,35,45,49)        -61.8182                                         !
 ! D147  D(47,35,45,51)         56.8392                                         !
 ! D148  D(23,43,44,20)          4.9355                                         !
 ! D149  D(23,43,44,53)       -175.9517                                         !
 ! D150  D(54,43,44,20)       -178.5813                                         !
 ! D151  D(54,43,44,53)          0.5315                                         !
 ! D152  D(23,43,54,56)         -4.2926                                         !
 ! D153  D(23,43,54,60)        175.0048                                         !
 ! D154  D(44,43,54,56)        179.59                                           !
 ! D155  D(44,43,54,60)         -1.1125                                         !
 ! D156  D(20,44,53,50)          1.1783                                         !
 ! D157  D(20,44,53,59)        179.5425                                         !
 ! D158  D(43,44,53,50)       -177.8856                                         !
 ! D159  D(43,44,53,59)          0.4786                                         !
 ! D160  D(29,50,53,44)        -25.758                                          !
 ! D161  D(29,50,53,59)        155.9499                                         !
 ! D162  D(57,50,53,44)         88.56                                           !
 ! D163  D(57,50,53,59)        -89.7321                                         !
 ! D164  D(58,50,53,44)       -154.2861                                         !
 ! D165  D(58,50,53,59)         27.4218                                         !
 ! D166  D(44,53,59,60)         -0.8686                                         !
 ! D167  D(44,53,59,61)        179.5068                                         !
 ! D168  D(50,53,59,60)        177.3582                                         !
 ! D169  D(50,53,59,61)         -2.2664                                         !
 ! D170  D(43,54,60,59)          0.6984                                         !
 ! D171  D(43,54,60,62)       -179.5137                                         !
 ! D172  D(56,54,60,59)        179.989                                          !
 ! D173  D(56,54,60,62)         -0.2232                                         !
 ! D174  D(53,59,60,54)          0.2669                                         !
 ! D175  D(53,59,60,62)       -179.5211                                         !
 ! D176  D(61,59,60,54)        179.8881                                         !
 ! D177  D(61,59,60,62)          0.1001                                         !
 ! D178  D(123,64,70,80)       178.9026                                         !
 ! D179  D(123,64,70,126)      -62.1206                                         !
 ! D180  D(123,64,70,127)       56.5597                                         !
 ! D181  D(124,64,70,80)        60.7433                                         !
 ! D182  D(124,64,70,126)      179.7202                                         !
 ! D183  D(124,64,70,127)      -61.5995                                         !
 ! D184  D(125,64,70,80)       -62.4961                                         !
 ! D185  D(125,64,70,126)       56.4808                                         !
 ! D186  D(125,64,70,127)      175.161                                          !
 ! D187  D(121,68,78,87)       -84.5338                                         !
 ! D188  D(121,68,78,95)        64.1046                                         !
 ! D189  D(121,68,78,102)     -165.3123                                         !
 ! D190  D(128,68,78,87)      -100.6038                                         !
 ! D191  D(128,68,78,95)        48.0346                                         !
 ! D192  D(128,68,78,102)      178.6177                                         !
 ! D193  D(78,68,128,8)       -170.5232                                         !
 ! D194  D(121,68,128,8)        25.8576                                         !
 ! D195  D(64,70,80,81)         60.9353                                         !
 ! D196  D(64,70,80,93)        -60.0502                                         !
 ! D197  D(126,70,80,81)       -61.6903                                         !
 ! D198  D(126,70,80,93)       177.3243                                         !
 ! D199  D(127,70,80,81)      -175.5675                                         !
 ! D200  D(127,70,80,93)        63.447                                          !
 ! D201  D(65,72,82,85)         61.2207                                         !
 ! D202  D(65,72,82,87)        -54.309                                          !
 ! D203  D(65,72,82,96)        178.5506                                         !
 ! D204  D(71,72,82,85)        -58.0037                                         !
 ! D205  D(71,72,82,87)       -173.5334                                         !
 ! D206  D(71,72,82,96)         59.3262                                         !
 ! D207  D(74,72,82,85)       -177.6453                                         !
 ! D208  D(74,72,82,87)         66.825                                          !
 ! D209  D(74,72,82,96)        -60.3154                                         !
 ! D210  D(67,75,86,87)        -61.876                                          !
 ! D211  D(67,75,86,89)         63.4403                                         !
 ! D212  D(67,75,86,98)       -179.7564                                         !
 ! D213  D(73,75,86,87)         57.8833                                         !
 ! D214  D(73,75,86,89)       -176.8005                                         !
 ! D215  D(73,75,86,98)        -59.9971                                         !
 ! D216  D(76,75,86,87)        179.144                                          !
 ! D217  D(76,75,86,89)        -55.5398                                         !
 ! D218  D(76,75,86,98)         61.2635                                         !
 ! D219  D(68,78,87,82)         -4.2344                                         !
 ! D220  D(68,78,87,86)        134.6897                                         !
 ! D221  D(68,78,87,108)      -111.9782                                         !
 ! D222  D(95,78,87,82)       -179.7591                                         !
 ! D223  D(95,78,87,86)        -40.835                                          !
 ! D224  D(95,78,87,108)        72.4971                                         !
 ! D225  D(102,78,87,82)        81.9638                                         !
 ! D226  D(102,78,87,86)      -139.1121                                         !
 ! D227  D(102,78,87,108)      -25.7801                                         !
 ! D228  D(68,78,102,101)      -66.0388                                         !
 ! D229  D(68,78,102,111)      116.5856                                         !
 ! D230  D(87,78,102,101)     -162.3677                                         !
 ! D231  D(87,78,102,111)       20.2566                                         !
 ! D232  D(95,78,102,101)      107.354                                          !
 ! D233  D(95,78,102,111)      -70.0217                                         !
 ! D234  D(70,80,81,77)         45.1194                                         !
 ! D235  D(70,80,81,88)        -73.9794                                         !
 ! D236  D(70,80,81,101)       161.1773                                         !
 ! D237  D(93,80,81,77)        168.3191                                         !
 ! D238  D(93,80,81,88)         49.2203                                         !
 ! D239  D(93,80,81,101)       -75.623                                          !
 ! D240  D(70,80,93,90)       -172.4426                                         !
 ! D241  D(70,80,93,103)       -50.0152                                         !
 ! D242  D(70,80,93,105)        72.9055                                         !
 ! D243  D(81,80,93,90)         66.3707                                         !
 ! D244  D(81,80,93,103)      -171.2019                                         !
 ! D245  D(81,80,93,105)       -48.2812                                         !
 ! D246  D(77,81,101,102)       77.1237                                         !
 ! D247  D(77,81,101,112)      -98.5902                                         !
 ! D248  D(80,81,101,102)      -38.5172                                         !
 ! D249  D(80,81,101,112)      145.7689                                         !
 ! D250  D(88,81,101,102)     -164.0684                                         !
 ! D251  D(88,81,101,112)       20.2178                                         !
 ! D252  D(72,82,85,79)        -61.7932                                         !
 ! D253  D(72,82,85,83)         57.4939                                         !
 ! D254  D(72,82,85,104)       174.5993                                         !
 ! D255  D(87,82,85,79)         54.0128                                         !
 ! D256  D(87,82,85,83)        173.2999                                         !
 ! D257  D(87,82,85,104)       -69.5947                                         !
 ! D258  D(96,82,85,79)        178.8215                                         !
 ! D259  D(96,82,85,83)        -61.8913                                         !
 ! D260  D(96,82,85,104)        55.214                                          !
 ! D261  D(72,82,87,78)         72.266                                          !
 ! D262  D(72,82,87,86)        -70.6095                                         !
 ! D263  D(72,82,87,108)       177.8617                                         !
 ! D264  D(85,82,87,78)        -44.7848                                         !
 ! D265  D(85,82,87,86)        172.3396                                         !
 ! D266  D(85,82,87,108)        60.8109                                         !
 ! D267  D(96,82,87,78)       -163.9723                                         !
 ! D268  D(96,82,87,86)         53.1521                                         !
 ! D269  D(96,82,87,108)       -58.3766                                         !
 ! D270  D(72,82,96,94)        -72.4326                                         !
 ! D271  D(72,82,96,99)         46.4295                                         !
 ! D272  D(72,82,96,110)       170.2662                                         !
 ! D273  D(85,82,96,94)         46.243                                          !
 ! D274  D(85,82,96,99)        165.1051                                         !
 ! D275  D(85,82,96,110)       -71.0583                                         !
 ! D276  D(87,82,96,94)        165.366                                          !
 ! D277  D(87,82,96,99)        -75.7719                                         !
 ! D278  D(87,82,96,110)        48.0648                                         !
 ! D279  D(75,86,87,78)        -45.5343                                         !
 ! D280  D(75,86,87,82)         95.9587                                         !
 ! D281  D(75,86,87,108)      -154.9326                                         !
 ! D282  D(89,86,87,78)       -166.4183                                         !
 ! D283  D(89,86,87,82)        -24.9252                                         !
 ! D284  D(89,86,87,108)        84.1834                                         !
 ! D285  D(98,86,87,78)         72.0862                                         !
 ! D286  D(98,86,87,82)       -146.4208                                         !
 ! D287  D(98,86,87,108)       -37.3121                                         !
 ! D288  D(75,86,89,84)        -53.4833                                         !
 ! D289  D(75,86,89,92)         64.3865                                         !
 ! D290  D(75,86,89,106)      -177.0892                                         !
 ! D291  D(87,86,89,84)         65.5048                                         !
 ! D292  D(87,86,89,92)       -176.6254                                         !
 ! D293  D(87,86,89,106)       -58.1011                                         !
 ! D294  D(98,86,89,84)       -171.6525                                         !
 ! D295  D(98,86,89,92)        -53.7827                                         !
 ! D296  D(98,86,89,106)        64.7416                                         !
 ! D297  D(75,86,98,97)         64.5114                                         !
 ! D298  D(75,86,98,100)       -54.1449                                         !
 ! D299  D(75,86,98,113)      -171.6834                                         !
 ! D300  D(87,86,98,97)        -50.7621                                         !
 ! D301  D(87,86,98,100)      -169.4185                                         !
 ! D302  D(87,86,98,113)        73.0431                                         !
 ! D303  D(89,86,98,97)       -177.4613                                         !
 ! D304  D(89,86,98,100)        63.8823                                         !
 ! D305  D(89,86,98,113)       -53.6561                                         !
 ! D306  D(78,87,108,111)       34.6024                                         !
 ! D307  D(78,87,108,115)      -81.27                                           !
 ! D308  D(78,87,108,116)      161.4156                                         !
 ! D309  D(82,87,108,111)      -85.5126                                         !
 ! D310  D(82,87,108,115)      158.615                                          !
 ! D311  D(82,87,108,116)       41.3006                                         !
 ! D312  D(86,87,108,111)      159.4004                                         !
 ! D313  D(86,87,108,115)       43.528                                          !
 ! D314  D(86,87,108,116)      -73.7864                                         !
 ! D315  D(80,93,103,91)       -51.4274                                         !
 ! D316  D(80,93,103,107)       69.3657                                         !
 ! D317  D(80,93,103,109)     -170.6575                                         !
 ! D318  D(90,93,103,91)        68.9247                                         !
 ! D319  D(90,93,103,107)     -170.2823                                         !
 ! D320  D(90,93,103,109)      -50.3055                                         !
 ! D321  D(105,93,103,91)     -174.0801                                         !
 ! D322  D(105,93,103,107)     -53.287                                          !
 ! D323  D(105,93,103,109)      66.6898                                         !
 ! D324  D(81,101,102,78)        7.602                                          !
 ! D325  D(81,101,102,111)    -175.0147                                         !
 ! D326  D(112,101,102,78)    -176.5044                                         !
 ! D327  D(112,101,102,111)      0.8789                                         !
 ! D328  D(81,101,112,114)      -5.2262                                         !
 ! D329  D(81,101,112,118)     174.1105                                         !
 ! D330  D(102,101,112,114)    179.3091                                         !
 ! D331  D(102,101,112,118)     -1.3542                                         !
 ! D332  D(78,102,111,108)      -1.083                                          !
 ! D333  D(78,102,111,117)     177.5405                                         !
 ! D334  D(101,102,111,108)   -178.3022                                         !
 ! D335  D(101,102,111,117)      0.3213                                         !
 ! D336  D(87,108,111,102)     -24.6829                                         !
 ! D337  D(87,108,111,117)     156.7521                                         !
 ! D338  D(115,108,111,102)     89.4572                                         !
 ! D339  D(115,108,111,117)    -89.1078                                         !
 ! D340  D(116,108,111,102)   -153.1957                                         !
 ! D341  D(116,108,111,117)     28.2393                                         !
 ! D342  D(102,111,117,118)     -0.9993                                         !
 ! D343  D(102,111,117,119)    179.4367                                         !
 ! D344  D(108,111,117,118)    177.5104                                         !
 ! D345  D(108,111,117,119)     -2.0536                                         !
 ! D346  D(101,112,118,117)      0.6547                                         !
 ! D347  D(101,112,118,120)   -179.5041                                         !
 ! D348  D(114,112,118,117)    179.9844                                         !
 ! D349  D(114,112,118,120)     -0.1744                                         !
 ! D350  D(111,117,118,112)      0.4915                                         !
 ! D351  D(111,117,118,120)   -179.3499                                         !
 ! D352  D(119,117,118,112)   -179.9488                                         !
 ! D353  D(119,117,118,120)      0.2098                                         !
 --------------------------------------------------------------------------------
 Stoichiometry    C40H74N4O6P2Ru2(3)
 Framework group  C1[X(C40H74N4O6P2Ru2)]
 Deg. of freedom   378
 Full point group                 C1      NOp   1
 Largest Abelian subgroup         C1      NOp   1
 Largest concise Abelian subgroup C1      NOp   1
                         Standard orientation:                         
 ---------------------------------------------------------------------
 Center     Atomic      Atomic             Coordinates (Angstroms)
 Number     Number       Type             X           Y           Z
 ---------------------------------------------------------------------
      1          1           0       -1.351709   -0.178379   -4.756758
      2          6           0       -2.221198   -0.153651   -4.083574
      3          1           0       -3.124461   -0.090821   -4.709417
      4          1           0       -2.138738    0.759015   -3.473883
      5          1           0       -0.318639    1.261655    1.256217
      6          8           0       -1.252347   -0.742307   -0.303955
      7          1           0       -2.043790    3.710094    0.572544
      8          8           0       -0.246460   -0.248380   -1.039915
      9          1           0       -1.890382    2.239461   -1.479605
     10          6           0       -2.191570   -1.387397   -3.208335
     11          1           0        0.176548    1.422831    2.969133
     12          1           0       -2.245840   -2.306439   -3.822647
     13          6           0       -0.640750    1.604634    2.250744
     14          1           0       -3.451618    3.487340   -0.484763
     15          1           0       -0.790772    2.694016    2.210267
     16          1           0       -1.242349   -1.416228   -2.657059
     17          6           0       -3.136594    3.819784    0.513318
     18          1           0       -3.378209    4.891636    0.607319
     19          1           0       -2.036791   -2.650407   -1.060994
     20         44           0       -3.106408    0.231669   -0.595236
     21          1           0       -1.381130   -0.997728    1.657481
     22          7           0       -3.266660   -1.418758   -2.188751
     23          6           0       -3.094109   -2.638296   -1.370284
     24          6           0       -1.886977    0.857371    2.722252
     25          1           0       -0.740664   -0.858997    3.312854
     26          1           0       -2.513850    3.830094    3.157746
     27          6           0       -1.615013   -0.652496    2.673125
     28          6           0       -3.864040    3.042331    1.615970
     29         15           0       -3.273522    1.224426    1.468903
     30          1           0       -3.299590   -3.553346   -1.950238
     31          6           0       -3.587680    3.721033    2.956389
     32          1           0       -4.750829   -0.405964   -3.254834
     33          1           0       -4.296515   -2.418455   -4.701821
     34          1           0       -4.016742    4.736497    2.922267
     35          6           0       -4.621453   -1.392471   -2.793622
     36          1           0       -1.446043    0.710392    4.815488
     37          6           0       -4.524095    1.178089   -1.248008
     38          6           0       -2.200361    1.204804    4.181224
     39          1           0       -5.691227    2.592532    0.459224
     40          6           0       -5.373869    3.116463    1.369302
     41          1           0       -2.150251    2.276052    4.397592
     42          1           0       -5.652774    4.176031    1.245284
     43          6           0       -3.918046   -2.607468   -0.113012
     44          7           0       -4.006364   -1.401921    0.466978
     45          6           0       -4.939258   -2.477664   -3.811357
     46          1           0       -2.456674   -1.234294    3.080258
     47          1           0       -5.337096   -1.433614   -1.959067
     48          1           0       -4.055869    3.195172    3.799978
     49          1           0       -4.859408   -3.494328   -3.398104
     50          6           0       -4.699441    0.191008    2.141528
     51          1           0       -5.978379   -2.346585   -4.148474
     52          1           0       -3.183280    0.830038    4.506751
     53          6           0       -4.638020   -1.222129    1.637483
     54          6           0       -4.494277   -3.725679    0.479834
     55          1           0       -5.946802    2.729170    2.225692
     56          1           0       -4.423608   -4.701779   -0.001938
     57          1           0       -5.606721    0.650855    1.718784
     58          1           0       -4.797069    0.221484    3.236769
     59          6           0       -5.218293   -2.309172    2.291786
     60          6           0       -5.145522   -3.568458    1.702695
     61          1           0       -5.724851   -2.165292    3.247026
     62          1           0       -5.600448   -4.429536    2.195873
     63          8           0       -5.397744    1.779848   -1.744493
     64          6           0        1.950643    4.786654   -0.601732
     65          1           0        1.769650   -0.904761    2.809706
     66          8           0       -1.009182    2.268647   -1.891785
     67          1           0        0.605560   -2.822945    0.898357
     68          8           0        2.648668    1.233334    1.581088
     69          1           0       -0.644104    1.395749   -1.610624
     70          6           0        1.826685    3.279591   -0.431506
     71          1           0        2.443679   -1.766746    4.220679
     72          6           0        2.297645   -1.813896    3.128066
     73          1           0        0.761104   -2.182346   -0.736355
     74          1           0        1.656972   -2.682640    2.913404
     75          6           0        0.989767   -3.052203   -0.106717
     76          1           0        0.440419   -3.933075   -0.483544
     77          1           0        3.884649    2.904793    0.890708
     78         44           0        2.747470    0.276118   -0.277925
     79          1           0        4.032413    0.241091    2.495305
     80          7           0        2.972920    2.469492   -0.915607
     81          6           0        4.190779    2.852600   -0.166336
     82          6           0        3.656428   -1.908908    2.433264
     83          1           0        4.598497   -0.687451    3.927216
     84          1           0        2.274170   -4.564891    1.743159
     85          6           0        4.510532   -0.695772    2.826770
     86          6           0        2.486846   -3.371911   -0.086861
     87         15           0        3.343824   -1.781378    0.551574
     88          1           0        4.571837    3.835242   -0.493088
     89          6           0        2.716319   -4.634896    0.740624
     90          1           0        3.992574    1.913758   -2.643555
     91          1           0        1.466218    1.562473   -3.032463
     92          1           0        2.219420   -5.475245    0.226391
     93          6           0        3.224758    2.651362   -2.362652
     94          1           0        4.746562   -2.977977    3.938490
     95          6           0        2.635756   -0.382745   -1.969492
     96          6           0        4.408046   -3.158032    2.904377
     97          1           0        2.879738   -2.815974   -2.187875
     98          6           0        2.958201   -3.674811   -1.511980
     99          1           0        3.797052   -4.065823    2.917175
    100          1           0        2.316659   -4.472169   -1.923697
    101          6           0        5.284107    1.825807   -0.239003
    102          7           0        4.860047    0.556299   -0.190839
    103          6           0        1.999777    2.497746   -3.239576
    104          1           0        5.532860   -0.772196    2.424313
    105          1           0        3.672221    3.651763   -2.526647
    106          1           0        3.780326   -4.893585    0.838664
    107          1           0        1.282540    3.318699   -3.107747
    108          6           0        5.097926   -1.845692   -0.134576
    109          1           0        2.314403    2.482668   -4.293734
    110          1           0        5.311411   -3.357079    2.307227
    111          6           0        5.716619   -0.476458   -0.145680
    112          6           0        6.643964    2.121005   -0.262293
[...]
  Beta virt. eigenvalues --    5.15948   5.16332   5.17169   5.17853   5.18350
  Beta virt. eigenvalues --    5.18910   5.19203   5.19689   5.19868   5.20804
  Beta virt. eigenvalues --    5.21028   5.21336   5.21629   5.21748   5.22169
  Beta virt. eigenvalues --    5.22327   5.22522   5.22897   5.23172   5.23477
  Beta virt. eigenvalues --    5.23795   5.24008   5.24223   5.24608   5.24765
  Beta virt. eigenvalues --    5.25143   5.25377   5.25619   5.25902   5.25928
  Beta virt. eigenvalues --    5.26117   5.26692   5.26894   5.26964   5.27237
  Beta virt. eigenvalues --    5.27478   5.27682   5.28275   5.28840   5.29089
  Beta virt. eigenvalues --    5.29464   5.29591   5.30092   5.30413   5.30876
  Beta virt. eigenvalues --    5.31081   5.31469   5.31573   5.31786   5.32110
  Beta virt. eigenvalues --    5.32810   5.32891   5.33725   5.34079   5.34177
  Beta virt. eigenvalues --    5.34716   5.35046   5.35475   5.35740   5.36057
  Beta virt. eigenvalues --    5.36268   5.36383   5.36566   5.36719   5.36877
  Beta virt. eigenvalues --    5.37160   5.37256   5.37684   5.37701   5.37953
  Beta virt. eigenvalues --    5.38052   5.38367   5.38775   5.39158   5.39417
  Beta virt. eigenvalues --    5.39633   5.39784   5.40162   5.40398   5.40440
  Beta virt. eigenvalues --    5.40525   5.40789   5.41095   5.41430   5.41766
  Beta virt. eigenvalues --    5.41872   5.42405   5.42719   5.43044   5.43389
  Beta virt. eigenvalues --    5.43585   5.43756   5.44112   5.44188   5.44527
  Beta virt. eigenvalues --    5.44909   5.45101   5.45349   5.45675   5.46193
  Beta virt. eigenvalues --    5.46808   5.46954   5.47102   5.47657   5.48014
  Beta virt. eigenvalues --    5.48214   5.48422   5.48611   5.48753   5.49097
  Beta virt. eigenvalues --    5.49512   5.49620   5.49825   5.49944   5.50184
  Beta virt. eigenvalues --    5.50827   5.51540   5.51907   5.52097   5.52558
  Beta virt. eigenvalues --    5.53126   5.53251   5.53417   5.53830   5.54138
  Beta virt. eigenvalues --    5.54683   5.54872   5.55313   5.55339   5.55968
  Beta virt. eigenvalues --    5.56195   5.56403   5.56572   5.56926   5.57662
  Beta virt. eigenvalues --    5.57976   5.58026   5.58578   5.58629   5.59136
  Beta virt. eigenvalues --    5.59241   5.59587   5.60182   5.60759   5.61015
  Beta virt. eigenvalues --    5.61344   5.61990   5.62268   5.62656   5.63376
  Beta virt. eigenvalues --    5.63760   5.64369   5.64634   5.66014   5.67107
  Beta virt. eigenvalues --    5.67727   5.68360   5.70117   5.70597   5.71089
  Beta virt. eigenvalues --    5.72056   5.73127   5.74045   5.74118   5.77495
  Beta virt. eigenvalues --    5.78905   5.79642   5.82447   5.86677   5.87508
  Beta virt. eigenvalues --    5.88473   5.88709   5.88905   5.89584   5.91009
  Beta virt. eigenvalues --    5.93295   5.93730   5.99862   5.99979   6.00509
  Beta virt. eigenvalues --    6.01292   6.01768   6.01813   6.01988   6.02122
  Beta virt. eigenvalues --    6.02391   6.03305   6.03373   6.03980   6.04239
  Beta virt. eigenvalues --    6.04404   6.04707   6.05008   6.05218   6.05857
  Beta virt. eigenvalues --    6.05925   6.06333   6.06988   6.08311   6.08504
  Beta virt. eigenvalues --    6.08953   6.08978   6.09799   6.10408   6.10732
  Beta virt. eigenvalues --    6.11157   6.11689   6.12784   6.13147   6.13400
  Beta virt. eigenvalues --    6.14405   6.14894   6.15028   6.15717   6.16033
  Beta virt. eigenvalues --    6.16374   6.17716   6.18579   6.19043   6.19318
  Beta virt. eigenvalues --    6.20074   6.20570   6.21102   6.21449   6.22465
  Beta virt. eigenvalues --    6.23825   6.25119   6.25675   6.26206   6.27808
  Beta virt. eigenvalues --    6.28171   6.29104   6.29703   6.31764   6.32023
  Beta virt. eigenvalues --    6.33179   6.34428   6.34889   6.36020   6.36841
  Beta virt. eigenvalues --    6.39535   6.41268   6.42105   6.42721   6.47554
  Beta virt. eigenvalues --    6.51267   6.53030   6.54002   6.56818   6.57616
  Beta virt. eigenvalues --    6.61250   6.64179   6.66752   6.67692   6.69669
  Beta virt. eigenvalues --    6.70946   6.73326   6.73725   6.78653   6.79474
  Beta virt. eigenvalues --    6.80067   6.82034   6.83507   6.85653   6.86079
  Beta virt. eigenvalues --    6.87757   6.89942   6.92970   6.93593   6.96345
  Beta virt. eigenvalues --    6.97490   7.07728   7.09259   7.11334   7.17767
  Beta virt. eigenvalues --    7.20828   7.27735   7.34592   7.44663   7.50083
  Beta virt. eigenvalues --    7.51118   7.88093   7.97191   8.47018   8.85975
  Beta virt. eigenvalues --    9.76024   9.80408  10.04983  10.07820  10.19052
  Beta virt. eigenvalues --   10.23837  10.74079  10.85881  10.89936  11.46393
  Beta virt. eigenvalues --   12.25097  12.27308  12.39378  12.42306  12.70282
  Beta virt. eigenvalues --   12.81120  12.83541  12.95219  12.99296  13.09751
  Beta virt. eigenvalues --   13.22518  13.24756  13.25960  13.28750  13.35253
  Beta virt. eigenvalues --   13.52434  13.53518  13.57508  13.59981  13.63637
  Beta virt. eigenvalues --   13.67929  13.71292  13.76970  13.77999  13.78912
  Beta virt. eigenvalues --   13.80963  13.83069  13.84485  13.88913  13.94513
  Beta virt. eigenvalues --   13.98333  14.00370  14.15011  14.18049  14.22795
  Beta virt. eigenvalues --   14.25540  15.08787  15.10090  35.46826  35.52030
  Beta virt. eigenvalues --   35.66220  35.74348  35.76217  35.81912  46.32828
  Beta virt. eigenvalues --   46.37260
          Condensed to atoms (all electrons):
          Atomic-Atomic Spin Densities.
 Mulliken charges and spin densities:
               1          2
     1  H    0.122366   0.000746
     2  C   -0.350302   0.001698
     3  H    0.117727  -0.000047
     4  H    0.108268   0.002186
     5  H    0.095842  -0.004656
     6  O   -0.400980   0.291999
     7  H    0.129505  -0.001604
     8  O   -0.299669   0.499560
     9  H    0.271750   0.022249
    10  C   -0.127846  -0.001000
    11  H    0.108937   0.000466
    12  H    0.119857   0.000812
    13  C   -0.349629   0.001446
    14  H    0.143006  -0.005898
    15  H    0.134737   0.000240
    16  H    0.151828   0.001313
    17  C   -0.364750   0.002109
    18  H    0.112497   0.001375
    19  H    0.177058  -0.001985
    20  Ru   0.770380   0.905105
    21  H    0.171671  -0.001604
    22  N   -0.235902  -0.002543
    23  C   -0.138430   0.011746
    24  C    0.021537  -0.003569
    25  H    0.120050   0.000204
    26  H    0.117557   0.000034
    27  C   -0.418383   0.007028
    28  C    0.020433  -0.001615
    29  P    0.038736  -0.015428
    30  H    0.129078  -0.000716
    31  C   -0.334558  -0.000485
    32  H    0.130817  -0.000556
    33  H    0.112206  -0.000022
    34  H    0.107878  -0.000045
    35  C   -0.124997   0.000139
    36  H    0.109467  -0.000113
    37  C   -0.234988   0.001806
    38  C   -0.340487   0.000539
    39  H    0.137413  -0.000007
    40  C   -0.357031   0.000041
    41  H    0.118869   0.000104
    42  H    0.107459  -0.000071
    43  C    0.137371  -0.004839
    44  N   -0.182961   0.059784
    45  C   -0.327790   0.000085
    46  H    0.123648   0.000127
    47  H    0.141255   0.000153
    48  H    0.112487   0.000060
    49  H    0.111324   0.000017
    50  C   -0.230352  -0.000484
    51  H    0.117860   0.000051
    52  H    0.117938  -0.000014
    53  C    0.039190  -0.000969
    54  C   -0.171644   0.005018
    55  H    0.112413  -0.000031
    56  H    0.161465   0.001554
    57  H    0.157978  -0.000283
    58  H    0.146368  -0.001070
    59  C   -0.142309   0.003999
    60  C   -0.135306  -0.002013
    61  H    0.162377   0.001218
    62  H    0.162026  -0.000015
    63  O   -0.329113   0.014749
    64  C   -0.336629   0.000245
    65  H    0.116840  -0.000358
    66  O   -0.569072   0.025952
    67  H    0.123214   0.000018
    68  O   -0.746912  -0.001635
    69  H    0.337869  -0.013355
    70  C   -0.136004   0.001177
    71  H    0.107626   0.000076
    72  C   -0.347306  -0.000028
    73  H    0.148538  -0.004140
    74  H    0.121576   0.000009
    75  C   -0.361221  -0.000125
    76  H    0.108812   0.000235
    77  H    0.172253  -0.000072
    78  Ru   0.588448   0.204481
    79  H    0.157784  -0.000056
    80  N   -0.197605  -0.000969
    81  C   -0.106443   0.000957
    82  C    0.011520  -0.000802
    83  H    0.101509  -0.000009
    84  H    0.116887   0.000013
    85  C   -0.404284  -0.000009
    86  C    0.008479  -0.000884
    87  P    0.076641  -0.005384
    88  H    0.123417  -0.000219
    89  C   -0.338799  -0.000089
    90  H    0.144761  -0.000011
    91  H    0.118582   0.000025
    92  H    0.107269  -0.000030
    93  C   -0.116235  -0.000049
    94  H    0.107258  -0.000103
    95  C   -0.196760  -0.007982
    96  C   -0.340103  -0.000144
    97  H    0.141705  -0.000091
    98  C   -0.372567   0.000039
    99  H    0.117914   0.000010
   100  H    0.105961  -0.000001
   101  C    0.093185  -0.001397
   102  N   -0.127373   0.030322
   103  C   -0.345289   0.000774
   104  H    0.112444   0.000012
   105  H    0.116731  -0.000114
   106  H    0.113217   0.000001
   107  H    0.112852   0.000360
   108  C   -0.235340   0.000398
   109  H    0.124127   0.000062
   110  H    0.116288   0.000008
   111  C    0.039455  -0.001971
   112  C   -0.164718   0.002603
   113  H    0.115227  -0.000007
   114  H    0.160167   0.000505
   115  H    0.157566  -0.000138
   116  H    0.145551  -0.000256
   117  C   -0.139091   0.002520
   118  C   -0.137136  -0.002269
   119  H    0.162344   0.000399
   120  H    0.161620   0.000059
   121  H    0.287422  -0.001375
   122  O   -0.327453   0.001483
   123  H    0.119104   0.000039
   124  H    0.109837  -0.000020
   125  H    0.113187  -0.000001
   126  H    0.142101   0.000052
   127  H    0.118126   0.000412
   128  H   -0.052276  -0.017230
 Sum of Mulliken charges =  -0.00000   2.00000
 Mulliken charges and spin densities with hydrogens summed into heavy atoms:
               1          2
     2  C   -0.001940   0.004583
     6  O   -0.400980   0.291999
     8  O   -0.351945   0.482330
    10  C    0.143839   0.001124
    13  C   -0.010114  -0.002503
    17  C    0.020258  -0.004019
    20  Ru   0.770380   0.905105
    22  N   -0.235902  -0.002543
    23  C    0.167705   0.009045
    24  C    0.021537  -0.003569
    27  C   -0.003013   0.005756
    28  C    0.020433  -0.001615
    29  P    0.038736  -0.015428
    31  C    0.003364  -0.000437
    35  C    0.147074  -0.000264
    37  C   -0.234988   0.001806
    38  C    0.005787   0.000516
    40  C    0.000254  -0.000067
    43  C    0.137371  -0.004839
    44  N   -0.182961   0.059784
    45  C    0.013599   0.000131
    50  C    0.073994  -0.001837
    53  C    0.039190  -0.000969
    54  C   -0.010179   0.006572
    59  C    0.020067   0.005217
    60  C    0.026720  -0.002028
    63  O   -0.329113   0.014749
    64  C    0.005500   0.000263
    66  O    0.040547   0.034845
    68  O   -0.459490  -0.003011
    70  C    0.124223   0.001642
    72  C   -0.001264  -0.000301
    75  C    0.019344  -0.004012
    78  Ru   0.588448   0.204481
    80  N   -0.197605  -0.000969
    81  C    0.189227   0.000666
    82  C    0.011520  -0.000802
    85  C   -0.032547  -0.000062
    86  C    0.008479  -0.000884
    87  P    0.076641  -0.005384
    89  C   -0.001426  -0.000104
    93  C    0.145257  -0.000174
    95  C   -0.196760  -0.007982
    96  C    0.001357  -0.000229
    98  C   -0.009675  -0.000059
   101  C    0.093185  -0.001397
   102  N   -0.127373   0.030322
   103  C    0.010272   0.001221
   108  C    0.067777   0.000003
   111  C    0.039455  -0.001971
   112  C   -0.004551   0.003108
   117  C    0.023253   0.002919
   118  C    0.024484  -0.002211
   122  O   -0.327453   0.001483
 Electronic spatial extent (au):  <R**2>=          38440.3990
 Charge=              0.0000 electrons
 Dipole moment (field-independent basis, Debye):
    X=             -0.0543    Y=             -7.9697    Z=              7.0980  Tot=             10.6724
 Quadrupole moment (field-independent basis, Debye-Ang):
   XX=           -285.1539   YY=           -336.6326   ZZ=           -376.5606
   XY=             29.9011   XZ=            -29.7089   YZ=              6.8226
 Traceless Quadrupole moment (field-independent basis, Debye-Ang):
   XX=             47.6285   YY=             -3.8502   ZZ=            -43.7783
   XY=             29.9011   XZ=            -29.7089   YZ=              6.8226
 Octapole moment (field-independent basis, Debye-Ang**2):
  XXX=            394.7740  YYY=            -42.5629  ZZZ=             -8.4752  XYY=              0.9026
  XXY=           -122.6857  XXZ=             82.2367  XZZ=           -138.5604  YZZ=            -32.0625
  YYZ=              3.5305  XYZ=            -91.6036
 Hexadecapole moment (field-independent basis, Debye-Ang**3):
 XXXX=         -27909.3554 YYYY=         -11326.3306 ZZZZ=          -9005.4645 XXXY=           1038.4443
 XXXZ=           -884.5361 YYYX=            517.4673 YYYZ=             45.8422 ZZZX=              6.3245
 ZZZY=             -4.7620 XXYY=          -6365.6839 XXZZ=          -6696.1488 YYZZ=          -3485.0289
 XXYZ=            -22.3768 YYXZ=           -202.4581 ZZXY=            193.1902
 N-N= 1.052967474355D+04 E-N=-2.829604879470D+04  KE= 2.970244804881D+03
 1\1\GINC-NODE275\SP\UPBE1PBE\GenECP\C40H74N4O6P2Ru2(3)\JS1212\23-Jul-2
 020\0\\# genecp pbe1pbe EmpiricalDispersion=GD3BJ scrf=(SMD,solvent=wa
 ter) geom=allcheck\\Title Card Required\\0,3\H,0,-0.76631883,1.3158478
 924,4.7210936462\C,0,-1.7064590116,1.0636196877,4.2089237839\H,0,-2.51
 36825091,1.1058490397,4.9559965832\H,0,-1.6111698697,0.0322654511,3.83
 64853429\H,0,-0.3563756824,-1.5499034333,-0.8391416488\O,0,-1.28092760
 8,0.7233474937,0.3007470098\H,0,-1.7321092934,-3.8460737117,0.66862769
 14\O,0,-0.1470508829,0.500225436,0.9804164801\H,0,-1.4692218981,-1.891
 3593302,2.2521659076\C,0,-1.9085553466,2.0307193864,3.0630944121\H,0,-
 0.0658669713,-2.1132394785,-2.5135150066\H,0,-1.9760656787,3.071212218
 6,3.434282735\C,0,-0.7648960366,-2.1564968411,-1.6611081397\H,0,-3.011
 6846494,-3.449983655,1.8327998896\H,0,-0.800334199,-3.2062977385,-1.33
 31429517\H,0,-1.0432747699,1.9777777071,2.389117779\C,0,-2.7927005934,
 -4.0065689954,0.9118317259\H,0,-2.9371135446,-5.0798339622,1.119985517
 \H,0,-2.1491180503,2.7075946705,0.6726567508\Ru,0,-2.9786463487,-0.259
 807472,1.0895249202\H,0,-1.6786479835,0.4580796327,-1.6229237934\N,0,-
 3.100538523,1.7305345747,2.2351947802\C,0,-3.153034066,2.7076451376,1.
 1263969453\C,0,-2.1279835657,-1.63657069,-2.1144006381\H,0,-1.23973645
 14,-0.0595499634,-3.2688637295\H,0,-2.5076886842,-4.6553015803,-1.7109
 203486\C,0,-2.0024873049,-0.1504621762,-2.4774551502\C,0,-3.72556975,-
 3.5863070504,-0.2294779075\P,0,-3.3037666853,-1.7576162853,-0.62074638
 8\H,0,-3.3737261911,3.7257973937,1.4877097686\C,0,-3.5533757946,-4.567
 1475864,-1.3879397163\H,0,-4.332340481,0.9324416373,3.7220548018\H,0,-
 3.9016147973,3.2736683053,4.5487487058\H,0,-3.8723830721,-5.565144229,
 -1.0434653315\C,0,-4.3597528803,1.7737374582,3.0191185349\H,0,-1.96904
 54477,-2.0037959968,-4.2209486689\C,0,-4.2030737197,-1.0957042177,2.15
 42860826\C,0,-2.5855452497,-2.3660906754,-3.3816633428\H,0,-5.42913124
 8,-2.972566715,1.0355104384\C,0,-5.177920359,-3.6910874982,0.245521754
 7\H,0,-2.4573297591,-3.4515123383,-3.3335191055\H,0,-5.3330881044,-4.6
 989423354,0.6650511484\C,0,-4.1206646518,2.3025560553,0.0492940506\N,0
 ,-4.1613266861,0.9854461527,-0.1978929034\C,0,-4.6533767033,3.06113459
 4,3.7746469531\H,0,-2.9417831852,0.2522931617,-2.8875151184\H,0,-5.174
 7052993,1.5534647363,2.3136736651\H,0,-4.1730454636,-4.3064506247,-2.2
 570888543\H,0,-4.7266621427,3.9406530123,3.1175050045\C,0,-4.897671355
 2,-1.0248322758,-1.3107598133\H,0,-5.6240971883,2.9547585298,4.2815876
 5\H,0,-3.6336369419,-2.1510897464,-3.6420993509\C,0,-4.9135669522,0.47
 12657851,-1.1833616382\C,0,-4.8741391293,3.1919455289,-0.7091031816\H,
 0,-5.8889089387,-3.5740103852,-0.5866074135\H,0,-4.8405226214,4.261444
 0099,-0.4971780688\H,0,-5.6950514369,-1.4178594048,-0.6603412405\H,0,-
 5.1280440769,-1.3415357374,-2.3386898699\C,0,-5.6756404292,1.314566891
 5,-1.9924216755\C,0,-5.6544960885,2.6848428618,-1.7474277888\H,0,-6.28
 10014732,0.8982640731,-2.7986573219\H,0,-6.2503505058,3.3595932068,-2.
 3649281421\O,0,-4.9440104326,-1.6045150249,2.9052832929\C,0,2.46448636
 47,-4.3274089828,1.4750388743\H,0,1.2969057347,0.2743000707,-3.1643474
 494\O,0,-0.5448441989,-1.757355481,2.5257125716\H,0,0.1973180964,2.540
 2096367,-1.6332202938\O,0,2.5295629687,-1.4161304246,-1.5906178806\H,0
 ,-0.3058234796,-0.9643384435,1.9887984172\C,0,2.1719598231,-2.92562470
 36,0.9602463691\H,0,1.7006774323,0.7866193944,-4.8264766143\C,0,1.6885
 275934,1.1031399103,-3.7695858212\H,0,0.6186338703,2.3518818537,0.0679
 178031\H,0,0.9970865373,1.9550505786,-3.6834704219\C,0,0.679692857,3.0
 438118355,-0.7823093028\H,0,0.097496755,3.954876227,-0.5570850518\H,0,
 4.0012009009,-2.771831323,-0.6993220604\Ru,0,2.76509563,-0.0096086287,
 -0.0582431055\H,0,3.6832515835,-0.6053076964,-2.9122297043\N,0,3.28408
 10559,-1.9468100584,1.0581166615\C,0,4.4304868977,-2.4306472959,0.2562
 342608\C,0,3.1074686189,1.45999989,-3.3253701187\H,0,3.971265515,-0.04
 10811427,-4.5949970063\H,0,1.566861203,4.1100775989,-3.1138253476\C,0,
 4.0212574317,0.2437185389,-3.5295499377\C,0,2.1235706552,3.4428137924,
 -1.0983253352\P,0,3.0468362765,1.7999027744,-1.4450690418\H,0,4.944606
 8037,-3.2700675996,0.7548440313\C,0,2.121850165,4.4631512712,-2.234736
 195\H,0,4.4519552492,-0.9021975903,2.4289528523\H,0,1.9718455233,-0.62
 52393404,3.0842962587\H,0,1.6126230165,5.3737539449,-1.8755390869\C,0,
 3.7316737583,-1.7347437496,2.4527948101\H,0,3.8897815427,2.1744611446,
 -5.1893813752\C,0,2.8013283682,1.0527460708,1.4175857102\C,0,3.6671649
 298,2.5918285398,-4.1930637827\H,0,2.8291675088,3.4709826925,0.9942875
 719\C,0,2.7372487985,4.1308047196,0.1243581278\H,0,2.9727142283,3.4249
 22738,-4.3388537653\H,0,2.0766503028,4.9643853908,0.4169681371\C,0,5.4
 175070725,-1.3518248532,-0.0856459164\N,0,4.8674475021,-0.1670113275,-
 0.3813642332\C,0,2.6168730073,-1.4399237118,3.4343610983\H,0,5.0733101
 747,0.4861048595,-3.3118353077\H,0,4.2927440523,-2.6288111828,2.790083
 3689\H,0,3.1344398276,4.7555380518,-2.5474899248\H,0,1.9734035804,-2.3
 113584632,3.614137584\C,0,4.8579924954,2.1502276673,-1.059324097\H,0,3
 .0578507427,-1.1347305235,4.3950172011\H,0,4.614018128,2.9948243431,-3
 .8014763379\C,0,5.6054109729,0.8721800946,-0.8030693789\C,0,6.79205144
 46,-1.5435382035,-0.1894178241\H,0,3.7231143335,4.5661713281,-0.101958
 4172\H,0,7.2327428661,-2.5085050333,0.0642432103\H,0,4.8412376418,2.72
 1984947,-0.1175993744\H,0,5.3712522799,2.7700304589,-1.8096826632\C,0,
 6.9856924657,0.7351126824,-0.9511389783\C,0,7.5798449987,-0.4839340619
 ,-0.6352636773\H,0,7.5836681827,1.5769193307,-1.3025657404\H,0,8.66003
 24691,-0.6075079471,-0.7344236546\H,0,1.6029741415,-1.3908676491,-1.84
 47571198\O,0,2.7688669522,1.6977442853,2.3941549609\H,0,1.5543702216,-
 4.9357978392,1.3601570748\H,0,2.7275377671,-4.3440533906,2.5442207238\
 H,0,3.266105424,-4.834402509,0.9157160896\H,0,1.9181091868,-2.94170562
 96,-0.1084429723\H,0,1.3121318612,-2.5051332976,1.4955084838\H,0,1.114
 7974837,0.0764468537,0.2142125601\\Version=ES64L-G16RevA.03\State=3-A\
 HF=-3109.8475643\S2=2.014628\S2-1=0.\S2A=2.00013\RMSD=2.009e-09\Dipole
 =-0.6801306,2.3058482,-3.4424879\Quadrupole=43.6392807,-4.1680238,-39.
 4712569,-13.3043901,15.8480195,0.7158501\PG=C01 [X(C40H74N4O6P2Ru2)]\\
 @


 SEE YOU NOW,
 YOUR BAIT OF FALSEHOOD TAKES THIS CARP OF TRUTH.
 AND THUS DO WE OF WISDOM AND OF REACH...
 BY INDIRECTIONS FIND DIRECTIONS OUT.    -- HAMLET, II, 1
 Job cpu time:       6 days  5 hours  2 minutes 25.3 seconds.
 Elapsed time:       0 days  7 hours 27 minutes 54.9 seconds.
 File lengths (MBytes):  RWF=   7607 Int=      0 D2E=      0 Chk=    591 Scr=      1
 Normal termination of Gaussian 16 at Thu Jul 23 01:03:34 2020.
