***************************************************************************************
*** WorkDir at /tmp/molcas_calculations/GMe-Cis-D0-VDZ-SA-CAS1311-Pi-ExpBas cleaned ***
***************************************************************************************
   This run of MOLCAS is using the pymolcas driver

                             OPE
                             OPE          NMOL  CASOP  ENMOLC A   SO
                 OPE        NMOLC        AS  OP EN  MO LC     AS  OP
                OPENM       OL CA        SO  PE NM  OL CA     SOP EN
                OP EN      MO   LC       AS  OP ENMOL  CASO   PENMOL
                OP  EN     MO   LC       AS  OP EN     MO     LC ASO
               OP   E  NMOL  C  AS       OP  EN MO     LC     AS  OP
               OP  E   NMO   LC AS        OPEN  MO     LCASOP EN   M
               O  PEN   MO  LCA  SO
            OPE   NMO   L   CAS    OP
        OPENMOL  CASOP     ENMOL   CASOPE
     OPENMOLCA   SOPENMOLCASOPEN   MOLCASOPE
    OPENMOLCAS   OP           EN   MOL    CAS
    OPENMOLCAS       OP  ENM        O     LCA
    OPENMOLCAS    OPEN  MOLCASO     P  E  NMO
    OPENMOLCAS     OP               E  N  MOL
    OPENMOLCA   SO           PENM   O  L  CAS    OPEN    MO    LCAS
    OPENMOLCA   SOP           ENM   O  L  CAS   OP  EN  MOLC  AS   O
    OPENMOLCA   SOPE           NM      O  LCA   S      OP  EN MO
    OPENMOLC                AS         O  PEN   M      OL  CA  SOPE
    OPENMO        LCASOPE  NMOL        C  ASO   P      ENMOLC     AS
    OPE     NMO      LCA  SO     P     E   NM   OL  CA SO  PE N   MO
          OPENMOLCA            SOPE   NMO        LCAS  O    P  ENMO
     OPENMOLCASOPENMOLCASOPENMOLCASOPENMOLCA
        OPENMOLCASOPENMOLCASOPENMOLCASOPE
            OPENMOLCASOPENMOLCASOPENM
               OPENMOLCASOPENMOLCA        version: 19.11
                   OPENMOLCASO
                       OPE                tag: 1008-ga5e89a9f

 OpenMolcas is free software; you can redistribute it and/or modify it
 under the terms of the GNU Lesser General Public License version 2.1.
 OpenMolcas is distributed in the hope that it will be useful, but it
 is provided "as is" and without any express or implied warranties.
 For more details see the full text of the license in the file
 LICENSE or in <http://www.gnu.org/licenses/>.

                 Copyright (C) The OpenMolcas Authors
           For the author list and the recommended citation,
                   consult the file CONTRIBUTORS.md

           *************************************************
           * pymolcas version py2.08                       *
           *   build bed633bbe89b7744c23cdbfc3f64969c      *
           *   (after the EMIL interpreter by V. Veryazov) *
           *************************************************

configuration info
------------------
C Compiler ID: GNU
C flags: -std=gnu99 -fopenmp
Fortran Compiler ID: GNU
Fortran flags: -fno-aggressive-loop-optimizations -cpp -fdefault-integer-8 -fopenmp
Definitions: _MOLCAS_;_I8_;_LINUX_;_OPENBLAS_;_FDE_
Parallel: OFF (GA=OFF)


   -----------------------------------------------------------------------------------
  |
  |              Project: GMe-Cis-D0-VDZ-SA-CAS1311-Pi-ExpBas
  |       Submitted from: /home/ubuntu/newcas/build/calc/200709
  |         Scratch area: /tmp/molcas_calculations/GMe-Cis-D0-VDZ-SA-CAS1311-Pi-ExpBas
  |      Save outputs to: /home/ubuntu/newcas/build/calc/200709
  |               Molcas: /home/ubuntu/newcas/build
  |
  | Scratch area is empty
  |
  |       MOLCAS_DRIVER = /usr/local/sbin/pymolcas
  |          MOLCAS_FIM = 1
  | MOLCAS_KEEP_WORKDIR = NO
  |       MOLCAS_LINALG = /home/ubuntu/newcas/OpenBLAS_install/openblas-lapack-ilp64
  |      MOLCAS_MAXITER = 200
  |       MOLCAS_MAXMEM = 30000
  |  MOLCAS_NEW_WORKDIR = YES
  |       MOLCAS_NPROCS = 1
  |        MOLCAS_PRINT = VERBOSE
  |       MOLCAS_SOURCE = /home/ubuntu/newcas/OpenMolcas
  |    MOLCAS_STRUCTURE = 0
  |
   -----------------------------------------------------------------------------------

++ ---------   Input file   ---------

&GATEWAY
        Title = GMe-Cis-D0-VDZ-SA-CAS1311-Pi-ExpBas
        coord = GMe-Cis-Mono-D-0-GPOF.xyz
        basis = ANO-RCC-VDZ
        group = c1
        RICD

>>> COPY $CurrDir/GMe-Cis-D0-MB-SA-CAS1311-Pi-Local-CAS-Guess-ReRun.RunFile RUNFIL1

>>> COPY $CurrDir/GMe-Cis-D0-MB-SA-CAS1311-Pi-Local-CAS-Guess-ReRun.RasOrb INPORB

>>> COPY $Project.RunFile RUNFIL2

&EXPBAS

&SEWARD

&RASSCF
        Fileorb = $Project.ExpOrb
        Spin = 2
        Charge = 0
        Nactel = 13 0 0
        Ras2 = 11
        CiRoot = 5 5 1
        TDM

>>> COPY $Project.RunFile $CurrDir/GMe-Cis-D0-VDZ-SA-CAS1311-Pi-ExpBas.RunFile

-- ----------------------------------

--- Start Module: gateway at Thu Jul  9 18:23:58 2020 ---

()()()()()()()()()()()()()()()()()()()()()()()()()()()()()()()()()()()()()()()()()()()()()()()()()()

                                              &GATEWAY

                                   only a single process is used
                       available to each process: 20 GB of memory, 16 threads
                                             pid: 2127
()()()()()()()()()()()()()()()()()()()()()()()()()()()()()()()()()()()()()()()()()()()()()()()()()()



 Basis Set     1 Label: O.ANO-RCC-VDZ
 Basis set is read from library:basis_library 
 Basis Set Reference(s):
     B. O. Roos, R. Lindh, P.-A. Malmqvist, V. Veryazov, and P.-O. Widmark,          
     J. Phys. Chem. A 108, 2851 (2004)                                               




 Basis Set     2 Label: C.ANO-RCC-VDZ
 Basis set is read from library:basis_library 
 Basis Set Reference(s):
     B. O. Roos, R. Lindh, P.-A. Malmqvist, V. Veryazov, and P.-O. Widmark,          
     J. Phys. Chem. A 108, 2851 (2004)                                               




 Basis Set     3 Label: H.ANO-RCC-VDZ
 Basis set is read from library:basis_library 
 Basis Set Reference(s):
     P.-O. Widmark, P.-A. Malmqvist, and B. O. Roos                                  
     Theor. Chim. Acta 77, 291 (1990)                                                




 Basis Set     4 Label: N.ANO-RCC-VDZ
 Basis set is read from library:basis_library 
 Basis Set Reference(s):
     B. O. Roos, R. Lindh, P.-A. Malmqvist, V. Veryazov, and P.-O. Widmark,          
     J. Phys. Chem. A 108, 2851 (2004)                                               




 Basis Set     5 Label: C.ANO-RCC-VDZ
 Basis set is read from library:basis_library 
 Basis Set Reference(s):
     B. O. Roos, R. Lindh, P.-A. Malmqvist, V. Veryazov, and P.-O. Widmark,          
     J. Phys. Chem. A 108, 2851 (2004)                                               




 Basis Set     6 Label: P.ANO-RCC-VDZ
 Basis set is read from library:basis_library 
 Basis Set Reference(s):
     B. O. Roos, R. Lindh, P.-A. Malmqvist, V. Veryazov, and P.-O. Widmark,          
     J. Phys. Chem. A 108, 2851 (2004)                                               




 Basis Set     7 Label: H.ANO-RCC-VDZ
 Basis set is read from library:basis_library 
 Basis Set Reference(s):
     P.-O. Widmark, P.-A. Malmqvist, and B. O. Roos                                  
     Theor. Chim. Acta 77, 291 (1990)                                                




 Basis Set     8 Label: C.ANO-RCC-VDZ
 Basis set is read from library:basis_library 
 Basis Set Reference(s):
     B. O. Roos, R. Lindh, P.-A. Malmqvist, V. Veryazov, and P.-O. Widmark,          
     J. Phys. Chem. A 108, 2851 (2004)                                               




 Basis Set     9 Label: N.ANO-RCC-VDZ
 Basis set is read from library:basis_library 
 Basis Set Reference(s):
     B. O. Roos, R. Lindh, P.-A. Malmqvist, V. Veryazov, and P.-O. Widmark,          
     J. Phys. Chem. A 108, 2851 (2004)                                               




 Basis Set    10 Label: C.ANO-RCC-VDZ
 Basis set is read from library:basis_library 
 Basis Set Reference(s):
     B. O. Roos, R. Lindh, P.-A. Malmqvist, V. Veryazov, and P.-O. Widmark,          
     J. Phys. Chem. A 108, 2851 (2004)                                               




 Basis Set    11 Label: H.ANO-RCC-VDZ
 Basis set is read from library:basis_library 
 Basis Set Reference(s):
     P.-O. Widmark, P.-A. Malmqvist, and B. O. Roos                                  
     Theor. Chim. Acta 77, 291 (1990)                                                




 Basis Set    12 Label: C.ANO-RCC-VDZ
 Basis set is read from library:basis_library 
 Basis Set Reference(s):
     B. O. Roos, R. Lindh, P.-A. Malmqvist, V. Veryazov, and P.-O. Widmark,          
     J. Phys. Chem. A 108, 2851 (2004)                                               




 Basis Set    13 Label: H.ANO-RCC-VDZ
 Basis set is read from library:basis_library 
 Basis Set Reference(s):
     P.-O. Widmark, P.-A. Malmqvist, and B. O. Roos                                  
     Theor. Chim. Acta 77, 291 (1990)                                                




 Basis Set    14 Label: O.ANO-RCC-VDZ
 Basis set is read from library:basis_library 
 Basis Set Reference(s):
     B. O. Roos, R. Lindh, P.-A. Malmqvist, V. Veryazov, and P.-O. Widmark,          
     J. Phys. Chem. A 108, 2851 (2004)                                               




 Basis Set    15 Label: H.ANO-RCC-VDZ
 Basis set is read from library:basis_library 
 Basis Set Reference(s):
     P.-O. Widmark, P.-A. Malmqvist, and B. O. Roos                                  
     Theor. Chim. Acta 77, 291 (1990)                                                




 Basis Set    16 Label: RU.ANO-RCC-VDZ
 Basis set is read from library:basis_library 
 Basis Set Reference(s):
     B. O. Roos, R. Lindh and P.-A. Malmqvist, V. Veryazov and P.-O. Widmark         
     J. Phys. Chem. A, 109. 6575-6579 (2005).                                        




 Basis Set    17 Label: H.ANO-RCC-VDZ
 Basis set is read from library:basis_library 
 Basis Set Reference(s):
     P.-O. Widmark, P.-A. Malmqvist, and B. O. Roos                                  
     Theor. Chim. Acta 77, 291 (1990)                                                




 Basis Set    19 Label: O.ANO-RCC-VDZ....acCD-aux-basis.
 On-the-fly basis set generation


 Basis Set    20 Label: C.ANO-RCC-VDZ....acCD-aux-basis.
 On-the-fly basis set generation


 Basis Set    21 Label: H.ANO-RCC-VDZ....acCD-aux-basis.
 On-the-fly basis set generation


 Basis Set    22 Label: N.ANO-RCC-VDZ....acCD-aux-basis.
 On-the-fly basis set generation


 Basis Set    23 Label: C.ANO-RCC-VDZ....acCD-aux-basis.
 On-the-fly basis set generation


 Basis Set    24 Label: P.ANO-RCC-VDZ....acCD-aux-basis.
 On-the-fly basis set generation


 Basis Set    25 Label: H.ANO-RCC-VDZ....acCD-aux-basis.
 On-the-fly basis set generation


 Basis Set    26 Label: C.ANO-RCC-VDZ....acCD-aux-basis.
 On-the-fly basis set generation


 Basis Set    27 Label: N.ANO-RCC-VDZ....acCD-aux-basis.
 On-the-fly basis set generation


 Basis Set    28 Label: C.ANO-RCC-VDZ....acCD-aux-basis.
 On-the-fly basis set generation


 Basis Set    29 Label: H.ANO-RCC-VDZ....acCD-aux-basis.
 On-the-fly basis set generation


 Basis Set    30 Label: C.ANO-RCC-VDZ....acCD-aux-basis.
 On-the-fly basis set generation


 Basis Set    31 Label: H.ANO-RCC-VDZ....acCD-aux-basis.
 On-the-fly basis set generation


 Basis Set    32 Label: O.ANO-RCC-VDZ....acCD-aux-basis.
 On-the-fly basis set generation


 Basis Set    33 Label: H.ANO-RCC-VDZ....acCD-aux-basis.
 On-the-fly basis set generation


 Basis Set    34 Label: RU.ANO-RCC-VDZ....acCD-aux-basis.
 On-the-fly basis set generation


 Basis Set    35 Label: RU.ANO-RCC-VDZ....acCD-aux-basis.
 On-the-fly basis set generation


 Basis Set    36 Label: H.ANO-RCC-VDZ....acCD-aux-basis.
 On-the-fly basis set generation

               ****************************************************************************************
               *                                                                                      *
               *                         GMe-Cis-D0-VDZ-SA-CAS1311-Pi-ExpBas                          *
               *                                                                                      *
               ****************************************************************************************

  Weights used for alignment and distance                     
  mat. size =    39x    1
       15.9949146195700003
       15.9949146195700003
       12.0000000000000000
        1.0078250322300000
       14.0030740044299993
       12.0000000000000000
       12.0000000000000000
       12.0000000000000000
       30.9737619984199988
        1.0078250322300000
       12.0000000000000000
       12.0000000000000000
       12.0000000000000000
       14.0030740044299993
       12.0000000000000000
       12.0000000000000000
       12.0000000000000000
        1.0078250322300000
        1.0078250322300000
        1.0078250322300000
       12.0000000000000000
       12.0000000000000000
        1.0078250322300000
        1.0078250322300000
       15.9949146195700003
        1.0078250322300000
        1.0078250322300000
        1.0078250322300000
        1.0078250322300000
        1.0078250322300000
        1.0078250322300000
        1.0078250322300000
        1.0078250322300000
        1.0078250322300000
        1.0078250322300000
        1.0078250322300000
        1.0078250322300000
      101.9043441000000030
        1.0078250322300000


++    Symmetry information:
      ---------------------

                    Character Table for C1 

                             E  
                    a        1  x, y, xy, Rz, z, xz, Ry, yz, Rx, I
--


++    Basis set information:
      ----------------------


      Basis set label: O.ANO-RCC...3S2P.

      Electronic valence basis set:
      ------------------
      Associated Effective Charge   8.000000 au
      Associated Actual Charge      8.000000 au
      Nuclear Model: Point charge

      Shell  nPrim  nBasis  Cartesian Spherical Contaminant
         s      14       3        X                  
         p       9       2        X                  

       Label   Cartesian Coordinates / Bohr

 O1                -1.0488924855       -5.2236376455       -0.8451422147
 O2                 0.2363669437       -1.0195828333       -3.8298890395


      Basis set label: C.ANO-RCC...3S2P.

      Electronic valence basis set:
      ------------------
      Associated Effective Charge   6.000000 au
      Associated Actual Charge      6.000000 au
      Nuclear Model: Point charge

      Shell  nPrim  nBasis  Cartesian Spherical Contaminant
         s      14       3        X                  
         p       9       2        X                  

       Label   Cartesian Coordinates / Bohr

 C3                 4.4123971174       -4.4035531992       -1.7638703647


      Basis set label: H.ANO-RCC...2S.

      Electronic valence basis set:
      ------------------
      Associated Effective Charge   1.000000 au
      Associated Actual Charge      1.000000 au
      Nuclear Model: Point charge

      Shell  nPrim  nBasis  Cartesian Spherical Contaminant
         s       8       2        X                  

       Label   Cartesian Coordinates / Bohr

 H4                 4.3942179521        0.0014928836       -3.3061703413


      Basis set label: N.ANO-RCC...3S2P.

      Electronic valence basis set:
      ------------------
      Associated Effective Charge   7.000000 au
      Associated Actual Charge      7.000000 au
      Nuclear Model: Point charge

      Shell  nPrim  nBasis  Cartesian Spherical Contaminant
         s      14       3        X                  
         p       9       2        X                  

       Label   Cartesian Coordinates / Bohr

 N5                 3.8450446430       -2.2250202309       -0.1492316721


      Basis set label: C.ANO-RCC...3S2P.

      Electronic valence basis set:
      ------------------
      Associated Effective Charge   6.000000 au
      Associated Actual Charge      6.000000 au
      Nuclear Model: Point charge

      Shell  nPrim  nBasis  Cartesian Spherical Contaminant
         s      14       3        X                  
         p       9       2        X                  

       Label   Cartesian Coordinates / Bohr

 C6                 4.8432168793        0.1144418141       -1.2732218737
 C7                -5.0276163546        1.3400614868       -3.7171857734
 C8                -6.9596912416       -0.4210876724        1.0819437954


      Basis set label: P.ANO-RCC...4S3P.

      Electronic valence basis set:
      ------------------
      Associated Effective Charge  15.000000 au
      Associated Actual Charge     15.000000 au
      Nuclear Model: Point charge

      Shell  nPrim  nBasis  Cartesian Spherical Contaminant
         s      17       4        X                  
         p      12       3        X                  

       Label   Cartesian Coordinates / Bohr

 P9                -4.0382880365        0.4969790735       -0.5266099791


      Basis set label: H.ANO-RCC...2S.

      Electronic valence basis set:
      ------------------
      Associated Effective Charge   1.000000 au
      Associated Actual Charge      1.000000 au
      Nuclear Model: Point charge

      Shell  nPrim  nBasis  Cartesian Spherical Contaminant
         s       8       2        X                  

       Label   Cartesian Coordinates / Bohr

 H10                6.9129394173        0.2632199519       -1.0341715190


      Basis set label: C.ANO-RCC...3S2P.

      Electronic valence basis set:
      ------------------
      Associated Effective Charge   6.000000 au
      Associated Actual Charge      6.000000 au
      Nuclear Model: Point charge

      Shell  nPrim  nBasis  Cartesian Spherical Contaminant
         s      14       3        X                  
         p       9       2        X                  

       Label   Cartesian Coordinates / Bohr

 C11                4.8639660722       -2.5991104145        2.3910326710
 C12               -0.9022119437       -1.9979318425        3.2886903747
 C13                3.5244526060        2.4423765298       -0.3180031123


      Basis set label: N.ANO-RCC...3S2P.

      Electronic valence basis set:
      ------------------
      Associated Effective Charge   7.000000 au
      Associated Actual Charge      7.000000 au
      Nuclear Model: Point charge

      Shell  nPrim  nBasis  Cartesian Spherical Contaminant
         s      14       3        X                  
         p       9       2        X                  

       Label   Cartesian Coordinates / Bohr

 N14                1.0381210466        2.1458029118        0.1548063641


      Basis set label: C.ANO-RCC...3S2P.

      Electronic valence basis set:
      ------------------
      Associated Effective Charge   6.000000 au
      Associated Actual Charge      6.000000 au
      Nuclear Model: Point charge

      Shell  nPrim  nBasis  Cartesian Spherical Contaminant
         s      14       3        X                  
         p       9       2        X                  

       Label   Cartesian Coordinates / Bohr

 C15               -3.2074132541        3.5647037724        1.0547506365
 C16               -0.4597136743        4.1482700970        0.6587396298
 C17                4.6493498762        4.8089939392       -0.1532945832


      Basis set label: H.ANO-RCC...2S.

      Electronic valence basis set:
      ------------------
      Associated Effective Charge   1.000000 au
      Associated Actual Charge      1.000000 au
      Nuclear Model: Point charge

      Shell  nPrim  nBasis  Cartesian Spherical Contaminant
         s       8       2        X                  

       Label   Cartesian Coordinates / Bohr

 H18                6.6700151240        5.0113836072       -0.5048025397
 H19               -3.5427640521        3.2251766796        3.0872266725
 H20               -4.4144002271        5.1599916696        0.4837509906


      Basis set label: C.ANO-RCC...3S2P.

      Electronic valence basis set:
      ------------------
      Associated Effective Charge   6.000000 au
      Associated Actual Charge      6.000000 au
      Nuclear Model: Point charge

      Shell  nPrim  nBasis  Cartesian Spherical Contaminant
         s      14       3        X                  
         p       9       2        X                  

       Label   Cartesian Coordinates / Bohr

 C21                0.5638186865        6.5702375846        0.7820631567
 C22                3.1469798126        6.8970657179        0.4078973840


      Basis set label: H.ANO-RCC...2S.

      Electronic valence basis set:
      ------------------
      Associated Effective Charge   1.000000 au
      Associated Actual Charge      1.000000 au
      Nuclear Model: Point charge

      Shell  nPrim  nBasis  Cartesian Spherical Contaminant
         s       8       2        X                  

       Label   Cartesian Coordinates / Bohr

 H23               -0.6617064998        8.1784512085        1.1800961703
 H24                3.9835048762        8.7780802051        0.5293878766


      Basis set label: O.ANO-RCC...3S2P.

      Electronic valence basis set:
      ------------------
      Associated Effective Charge   8.000000 au
      Associated Actual Charge      8.000000 au
      Nuclear Model: Point charge

      Shell  nPrim  nBasis  Cartesian Spherical Contaminant
         s      14       3        X                  
         p       9       2        X                  

       Label   Cartesian Coordinates / Bohr

 O25               -1.3793488929       -2.3236261401        5.4060529083


      Basis set label: H.ANO-RCC...2S.

      Electronic valence basis set:
      ------------------
      Associated Effective Charge   1.000000 au
      Associated Actual Charge      1.000000 au
      Nuclear Model: Point charge

      Shell  nPrim  nBasis  Cartesian Spherical Contaminant
         s       8       2        X                  

       Label   Cartesian Coordinates / Bohr

 H26               -6.4905289367        2.8165611997       -3.7125181499
 H27               -5.7466760422       -0.3812522456       -4.6323612383
 H28               -3.3278643972        1.9176184822       -4.7586516352
 H29               -6.5380366515       -0.8332558374        3.0740363842
 H30               -7.6687164836       -2.1594467344        0.1903710098
 H31               -8.4161976522        1.0580387599        0.9565604670
 H32                3.4895682617       -6.0685908876       -0.9436536376
 H33                6.4764504771       -4.6895821454       -1.9322638597
 H34                3.5456364359       -4.0550499073       -3.6155563025
 H35                4.4361320776       -0.9448819596        3.5721114989
 H36                6.9365231994       -2.8796213605        2.3343786818
 H37                3.9712216564       -4.2683055004        3.2377811529


      Basis set label: RU.ANO-RCC...6S5P3D.

      Electronic valence basis set:
      ------------------
      Associated Effective Charge  44.000000 au
      Associated Actual Charge     44.000000 au
      Nuclear Model: Point charge

      Shell  nPrim  nBasis  Cartesian Spherical Contaminant
         s      21       6        X                  
         p      18       5        X                  
         d      13       3                 X         

       Label   Cartesian Coordinates / Bohr

 RU38              -0.3251084825       -1.4881215286       -0.1585669191


      Basis set label: H.ANO-RCC...2S.

      Electronic valence basis set:
      ------------------
      Associated Effective Charge   1.000000 au
      Associated Actual Charge      1.000000 au
      Nuclear Model: Point charge

      Shell  nPrim  nBasis  Cartesian Spherical Contaminant
         s       8       2        X                  

       Label   Cartesian Coordinates / Bohr

 H39               -2.4622375513       -5.8047095315        0.1463214938
--


++    Molecular structure info:
      -------------------------

                    ************************************************ 
                    **** Cartesian Coordinates / Bohr, Angstrom **** 
                    ************************************************ 

     Center  Label                x              y              z                     x              y              z
        1      O1              -1.048892      -5.223638      -0.845142             -0.555050      -2.764230      -0.447230
        2      O2               0.236367      -1.019583      -3.829889              0.125080      -0.539540      -2.026690
        3      C3               4.412397      -4.403553      -1.763870              2.334940      -2.330260      -0.933400
        4      H4               4.394218       0.001493      -3.306170              2.325320       0.000790      -1.749550
        5      N5               3.845045      -2.225020      -0.149232              2.034710      -1.177430      -0.078970
        6      C6               4.843217       0.114442      -1.273222              2.562920       0.060560      -0.673760
        7      C7              -5.027616       1.340061      -3.717186             -2.660500       0.709130      -1.967050
        8      C8              -6.959691      -0.421088       1.081944             -3.682910      -0.222830       0.572540
        9      P9              -4.038288       0.496979      -0.526610             -2.136970       0.262990      -0.278670
       10      H10              6.912939       0.263220      -1.034172              3.658170       0.139290      -0.547260
       11      C11              4.863966      -2.599110       2.391033              2.573900      -1.375390       1.265280
       12      C12             -0.902212      -1.997932       3.288690             -0.477430      -1.057260       1.740300
       13      C13              3.524453       2.442377      -0.318003              1.865060       1.292450      -0.168280
       14      N14              1.038121       2.145803       0.154806              0.549350       1.135510       0.081920
       15      C15             -3.207413       3.564704       1.054751             -1.697290       1.886360       0.558150
       16      C16             -0.459714       4.148270       0.658740             -0.243270       2.195170       0.348590
       17      C17              4.649350       4.808994      -0.153295              2.460330       2.544810      -0.081120
       18      H18              6.670015       5.011384      -0.504803              3.529620       2.651910      -0.267130
       19      H19             -3.542764       3.225177       3.087227             -1.874750       1.706690       1.633690
       20      H20             -4.414400       5.159992       0.483751             -2.336000       2.730550       0.255990
       21      C21              0.563819       6.570238       0.782063              0.298360       3.476820       0.413850
       22      C22              3.146980       6.897066       0.407897              1.665310       3.649770       0.215850
       23      H23             -0.661706       8.178451       1.180096             -0.350160       4.327850       0.624480
       24      H24              3.983505       8.778080       0.529388              2.107980       4.645160       0.280140
       25      O25             -1.379349      -2.323626       5.406053             -0.729920      -1.229610       2.860760
       26      H26             -6.490529       2.816561      -3.712518             -3.434640       1.490460      -1.964580
       27      H27             -5.746676      -0.381252      -4.632361             -3.041010      -0.201750      -2.451340
       28      H28             -3.327864       1.917618      -4.758652             -1.761030       1.014760      -2.518170
       29      H29             -6.538037      -0.833256       3.074036             -3.459780      -0.440940       1.626710
       30      H30             -7.668716      -2.159447       0.190371             -4.058110      -1.142730       0.100740
       31      H31             -8.416198       1.058039       0.956560             -4.453660       0.559890       0.506190
       32      H32              3.489568      -6.068591      -0.943654              1.846600      -3.211360      -0.499360
       33      H33              6.476450      -4.689582      -1.932264              3.427190      -2.481620      -1.022510
       34      H34              3.545636      -4.055050      -3.615556              1.876270      -2.145840      -1.913270
       35      H35              4.436132      -0.944882       3.572111              2.347500      -0.500010       1.890280
       36      H36              6.936523      -2.879621       2.334379              3.670650      -1.523830       1.235300
       37      H37              3.971222      -4.268306       3.237781              2.101480      -2.258690       1.713360
       38      RU38            -0.325108      -1.488122      -0.158567             -0.172040      -0.787480      -0.083910
       39      H39             -2.462238      -5.804710       0.146321             -1.302960      -3.071720       0.077430

                    ************************************************* 
                    **** InterNuclear Distances / Bohr, Angstrom **** 
                    ************************************************* 

     Atom centers         Bohr        Angstrom
   39 H39       1 O1      1.821590        0.963944
   23 H23      21 C21     2.060751        1.090502
   18 H18      17 C17     2.060972        1.090620
   24 H24      22 C22     2.062220        1.091280
   32 H32       3 C3      2.072853        1.096907
   37 H37      11 C11     2.073689        1.097349
   34 H34       3 C3      2.073998        1.097513
   28 H28       7 C7      2.075423        1.098266
   35 H35      11 C11     2.077128        1.099169
   29 H29       8 C8      2.077525        1.099379
   27 H27       7 C7      2.077863        1.099558
   30 H30       8 C8      2.078343        1.099812
   26 H26       7 C7      2.078506        1.099898
   31 H31       8 C8      2.079651        1.100504
   20 H20      15 C15     2.080337        1.100867
    6 C6        4 H4      2.085003        1.103336
   19 H19      15 C15     2.087749        1.104789
   10 H10       6 C6      2.088787        1.105339
   33 H33       3 C3      2.090571        1.106282
   36 H36      11 C11     2.092221        1.107156
   25 O25      12 C12     2.194758        1.161416
   14 N14      13 C13     2.548205        1.348452
   16 C16      14 N14     2.550947        1.349903
   17 C17      13 C13     2.625529        1.389370
   22 C22      21 C21     2.630501        1.392001
   21 C21      16 C16     2.632253        1.392928
   22 C22      17 C17     2.632887        1.393264
   11 C11       5 N5      2.762442        1.461821
    5 N5        3 C3      2.770371        1.466017
    6 C6        5 N5      2.780788        1.471530
   16 C16      15 C15     2.836764        1.501151
   13 C13       6 C6      2.840926        1.503353
   28 H28      27 H27     3.339372        1.767120
   34 H34      32 H32     3.346125        1.770693
   20 H20      19 H19     3.358771        1.777385
   30 H30      29 H29     3.369383        1.783001
   37 H37      35 H35     3.372397        1.784596
   31 H31      30 H30     3.390868        1.794370
   36 H36      35 H35     3.395166        1.796645
   37 H37      36 H36     3.396703        1.797458
   10 H10       4 H4      3.402123        1.800326
   31 H31      29 H29     3.404143        1.801395
   27 H27      26 H26     3.409610        1.804288
   33 H33      32 H32     3.435183        1.817820
   34 H34      33 H33     3.438863        1.819768
    9 P9        7 C7      3.445190        1.823116
   28 H28      26 H26     3.450354        1.825849
    9 P9        8 C8      3.459030        1.830440
   38 RU38     12 C12     3.532214        1.869167
   15 C15       9 P9      3.549928        1.878541
   38 RU38      2 O2      3.743446        1.980946
   38 RU38      1 O1      3.866436        2.046030
   38 RU38     14 N14     3.893842        2.060532
    5 N5        4 H4      3.901950        2.064823
   34 H34       5 N5      3.931165        2.080283
   32 H32       5 N5      3.940876        2.085422
   13 C13       4 H4      3.955193        2.092998
   37 H37       5 N5      3.957624        2.094285
   35 H35       5 N5      3.979514        2.105868
   36 H36       5 N5      4.019212        2.126875
   33 H33       5 N5      4.022134        2.128422
   19 H19      16 C16     4.031730        2.133500
   10 H10       5 N5      4.048016        2.142118
   18 H18      13 C13     4.065619        2.151433
   23 H23      16 C16     4.068780        2.153106
   24 H24      21 C21     4.078317        2.158152
   24 H24      17 C17     4.082040        2.160123
   20 H20      16 C16     4.085798        2.162111
   13 C13      10 H10     4.091878        2.165328
   23 H23      22 C22     4.091984        2.165385
   22 C22      18 H18     4.098853        2.169020
   34 H34       4 H4      4.155881        2.199198
   38 RU38      9 P9      4.226557        2.236598
   38 RU38      5 N5      4.234771        2.240944
    4 H4        2 O2      4.313305        2.282503
   16 C16      13 C13     4.442711        2.350981
   21 C21      14 N14     4.493777        2.378005
   34 H34       2 O2      4.495694        2.379019
   17 C17      14 N14     4.497609        2.380032
   28 H28       9 P9      4.520298        2.392039
   22 C22      13 C13     4.529202        2.396751
   27 H27       9 P9      4.532888        2.398701
   22 C22      16 C16     4.541700        2.403364
   14 N14       6 C6      4.543616        2.404378
   21 C21      17 C17     4.546255        2.405775
   11 C11       3 C3      4.552268        2.408957
   19 H19       9 P9      4.555044        2.410425
   30 H30       9 P9      4.555290        2.410556
   11 C11       6 C6      4.559666        2.412872
    6 C6        3 C3      4.564934        2.415659
   15 C15      14 N14     4.565933        2.416187
   37 H37      32 H32     4.577927        2.422535
   29 H29       9 P9      4.580712        2.424008
   36 H36      10 H10     4.607075        2.437959
   32 H32       1 O1      4.617497        2.443474
   26 H26       9 P9      4.641547        2.456201
   31 H31       9 P9      4.656251        2.463982
   36 H36      33 H33     4.657452        2.464618
    4 H4        3 C3      4.667274        2.469815
   13 C13       5 N5      4.681437        2.477310
   28 H28       2 O2      4.710997        2.492952
   24 H24      23 H23     4.728738        2.502340
   24 H24      18 H18     4.740769        2.508707
   18 H18      10 H10     4.783754        2.531454
   20 H20       9 P9      4.786019        2.532652
   39 H39      38 RU38    4.826304        2.553970
   21 C21      15 C15     4.830091        2.555974
   17 C17       6 C6      4.830180        2.556021
   23 H23      20 H20     4.866077        2.575017
   11 C11      10 H10     4.911543        2.599076
   34 H34       6 C6      4.955291        2.622227
   35 H35       6 C6      4.976459        2.633428
   32 H32      11 C11     5.004638        2.648340
   37 H37       3 C3      5.022892        2.658000
   29 H29      19 H19     5.044076        2.669210
   36 H36       3 C3      5.048686        2.671649
   33 H33      10 H10     5.052459        2.673646
   33 H33      11 C11     5.065676        2.680640
   33 H33       6 C6      5.116682        2.707632
   36 H36       6 C6      5.134309        2.716959
   14 N14       2 O2      5.151725        2.726176
   17 C17      10 H10     5.154012        2.727386
   39 H39      12 C12     5.176844        2.739468
   21 C21      20 H20     5.182707        2.742570
   21 C21      13 C13     5.197570        2.750436
   14 N14       5 N5      5.203398        2.753520
   22 C22      14 N14     5.204406        2.754053
   17 C17      16 C16     5.215217        2.759774
   26 H26      20 H20     5.235518        2.770517
   35 H35      13 C13     5.238098        2.771882
   12 C12       1 O1      5.245499        2.775799
   16 C16       9 P9      5.248159        2.777206
   23 H23      15 C15     5.270958        2.789271
   14 N14       4 H4      5.276345        2.792121
   18 H18       6 C6      5.282774        2.795524
    5 N5        2 O2      5.293663        2.801286
   33 H33       4 H4      5.313144        2.811595
    2 O2        1 O1      5.313632        2.811853
   10 H10       3 C3      5.344525        2.828201
   31 H31      26 H26     5.347981        2.830029
   35 H35      10 H10     5.367674        2.840451
   37 H37      12 C12     5.376574        2.845160
   14 N14       9 P9      5.380788        2.847390
   19 H19       8 C8      5.384403        2.849303
    6 C6        2 O2      5.389399        2.851947
   35 H35      12 C12     5.448592        2.883271
    8 C8        7 C7      5.464998        2.891952
   15 C15       8 C8      5.474200        2.896822
   30 H30      27 H27     5.487710        2.903971
   34 H34       1 O1      5.490946        2.905683
   38 RU38     13 C13     5.503940        2.912560
   38 RU38      6 C6      5.524695        2.923543
   12 C12       9 P9      5.533179        2.928032
   19 H19      14 N14     5.545146        2.934365
   14 N14      12 C12     5.545869        2.934747
   15 C15       7 C7      5.570776        2.947928
    3 C3        1 O1      5.598418        2.962555
    9 P9        2 O2      5.611086        2.969259
--


++    Isotope specification:
      ----------------------

 Center
 Type   Z    A    mass (Da)
 --------------------------
    1   8   16    15.994915
    2   6   12    12.000000
    3   1    1     1.007825
    4   7   14    14.003074
    5   6   12    12.000000
    6  15   31    30.973762
    7   1    1     1.007825
    8   6   12    12.000000
    9   7   14    14.003074
   10   6   12    12.000000
   11   1    1     1.007825
   12   6   12    12.000000
   13   1    1     1.007825
   14   8   16    15.994915
   15   1    1     1.007825
   16  44  102   101.904344
   17   1    1     1.007825
--


++    Rigid rotor info:
      -----------------


                    Total mass (a) : 373.02550

                    Center of mass 
                          X          Y          Z   
                      -0.02670   -0.06556    0.00773

                    Reference system based on center of mass
                    Coordinates and Masses of Atoms, in au and A
                          X          Y          Z        Mass
                      -1.02219   -5.15808   -0.85287   15.99491
                       0.26307   -0.95402   -3.83762   15.99491
                       4.43910   -4.33799   -1.77160   12.00000
                       4.42092    0.06705   -3.31390    1.00783
                       3.87175   -2.15946   -0.15696   14.00307
                       4.86992    0.18000   -1.28095   12.00000
                      -5.00091    1.40562   -3.72491   12.00000
                      -6.93299   -0.35553    1.07421   12.00000
                      -4.01159    0.56254   -0.53434   30.97376
                       6.93964    0.32878   -1.04190    1.00783
                       4.89067   -2.53355    2.38330   12.00000
                      -0.87551   -1.93237    3.28096   12.00000
                       3.55116    2.50794   -0.32573   12.00000
                       1.06482    2.21136    0.14708   14.00307
                      -3.18071    3.63026    1.04702   12.00000
                      -0.43301    4.21383    0.65101   12.00000
                       4.67605    4.87455   -0.16102   12.00000
                       6.69672    5.07694   -0.51253    1.00783
                      -3.51606    3.29074    3.07950    1.00783
                      -4.38770    5.22555    0.47602    1.00783
                       0.59052    6.63580    0.77433   12.00000
                       3.17368    6.96262    0.40017   12.00000
                      -0.63500    8.24401    1.17237    1.00783
                       4.01021    8.84364    0.52166    1.00783
                      -1.35265   -2.25807    5.39832   15.99491
                      -6.46383    2.88212   -3.72025    1.00783
                      -5.71997   -0.31569   -4.64009    1.00783
                      -3.30116    1.98318   -4.76638    1.00783
                      -6.51133   -0.76770    3.06631    1.00783
                      -7.64201   -2.09389    0.18264    1.00783
                      -8.38949    1.12360    0.94883    1.00783
                       3.51627   -6.00303   -0.95138    1.00783
                       6.50315   -4.62402   -1.93999    1.00783
                       3.57234   -3.98949   -3.62329    1.00783
                       4.46283   -0.87932    3.56438    1.00783
                       6.96323   -2.81406    2.32665    1.00783
                       3.99792   -4.20275    3.23005    1.00783
                      -0.29841   -1.42256   -0.16630  101.90434
                      -2.43553   -5.73915    0.13859    1.00783

                    The Moment of Inertia Tensor / au
                                     X          Y        Z     
                    X             0.8714E+07
                    Y            -0.1367E+06 0.9198E+07
                    Z             0.2377E+05 0.1010E+05 0.1307E+08

                    The Principal Axes and Moments of Inertia (au)
                    Eigenvalues : 0.1307E+08 0.9234E+07 0.8678E+07
                                     X'         Y'       Z'    
                    Eigenvectors:
                    X             0.5386E-02-0.2544E+00 0.9671E+00
                    Y             0.2422E-02 0.9671E+00 0.2544E+00
                    Z             0.1000E+01-0.9720E-03-0.5825E-02

                    The Rotational Constants
                            (cm-1)            (GHz)
                              0.008            0.252
                              0.012            0.356
                              0.013            0.379


                    *******************************************
                    *                                         *
                    * R I G I D - R O T O R   A N A L Y S I S *
                    *                                         *
                    *******************************************

                    j(Max):  5

                    Rotor Type: Linear Rotor
                    Asymmetry parameter:  0.641
                    Prolate = -1
                    Oblate  =  1


                    Rotational energies / cm-1

                    E(J= 0,kappa= 0) =        0.000

                    E(J= 1,kappa=-1) =        0.020
                    E(J= 1,kappa= 0) =        0.021
                    E(J= 1,kappa= 1) =        0.025

                    E(J= 2,kappa=-2) =        0.058
                    E(J= 2,kappa=-1) =        0.058
                    E(J= 2,kappa= 0) =        0.069
                    E(J= 2,kappa= 1) =        0.071
                    E(J= 2,kappa= 2) =        0.074

                    E(J= 3,kappa=-3) =        0.112
                    E(J= 3,kappa=-2) =        0.112
                    E(J= 3,kappa=-1) =        0.131
                    E(J= 3,kappa= 0) =        0.132
                    E(J= 3,kappa= 1) =        0.141
                    E(J= 3,kappa= 2) =        0.146
                    E(J= 3,kappa= 3) =        0.148

                    E(J= 4,kappa=-4) =        0.183
                    E(J= 4,kappa=-3) =        0.183
                    E(J= 4,kappa=-2) =        0.210
                    E(J= 4,kappa=-1) =        0.210
                    E(J= 4,kappa= 0) =        0.228
                    E(J= 4,kappa= 1) =        0.230
                    E(J= 4,kappa= 2) =        0.238
                    E(J= 4,kappa= 3) =        0.246
                    E(J= 4,kappa= 4) =        0.247

                    E(J= 5,kappa=-5) =        0.271
                    E(J= 5,kappa=-4) =        0.271
                    E(J= 5,kappa=-3) =        0.306
                    E(J= 5,kappa=-2) =        0.306
                    E(J= 5,kappa=-1) =        0.332
                    E(J= 5,kappa= 0) =        0.333
                    E(J= 5,kappa= 1) =        0.350
                    E(J= 5,kappa= 2) =        0.353
                    E(J= 5,kappa= 3) =        0.359
                    E(J= 5,kappa= 4) =        0.370
                    E(J= 5,kappa= 5) =        0.371
--


++    Primitive basis info:
      ---------------------


                    *****************************************************
                    ******** Primitive Basis Functions (Valence) ********
                    *****************************************************


 Basis set:O.ANO-RCC...3S2P.                                                               

                  Type         
                   s
           No.      Exponent    Contraction Coefficients
            1  0.105374950D+06   0.000124  -0.000028   0.000026
            2  0.156792400D+05   0.000512  -0.000116   0.000107
            3  0.353454470D+04   0.002153  -0.000491   0.000460
            4  0.987365160D+03   0.008528  -0.001946   0.001796
            5  0.315978750D+03   0.030180  -0.007005   0.006676
            6  0.111654280D+03   0.090997  -0.021678   0.020534
            7  0.426994510D+02   0.217794  -0.056412   0.058286
            8  0.173955960D+02   0.368625  -0.112705   0.121297
            9  0.743830900D+01   0.336671  -0.158912   0.226415
           10  0.322286200D+01   0.096576  -0.033551  -0.042387
           11  0.125387700D+01   0.002145   0.353190  -1.010455
           12  0.495155000D+00   0.001194   0.553420  -0.153869
           13  0.191665000D+00   0.000539   0.230184   0.993453
           14  0.670830000D-01   0.000210   0.011273   0.185873

                  Type         
                   p
           No.      Exponent    Contraction Coefficients
           15  0.200000000D+03   0.000917  -0.000872
           16  0.465333670D+02   0.007377  -0.007064
           17  0.146218090D+02   0.034835  -0.033305
           18  0.531306400D+01   0.114440  -0.114413
           19  0.210252500D+01   0.255497  -0.299011
           20  0.850223000D+00   0.372256  -0.319861
           21  0.337597000D+00   0.332331   0.205509
           22  0.128892000D+00   0.140085   0.593593
           23  0.451120000D-01   0.023958   0.282290


 Basis set:C.ANO-RCC...3S2P.                                                               

                  Type         
                   s
           No.      Exponent    Contraction Coefficients
           47  0.505575010D+05   0.000113  -0.000025   0.000016
           48  0.752478560D+04   0.000530  -0.000118   0.000075
           49  0.169432760D+04   0.002450  -0.000546   0.000357
           50  0.472822790D+03   0.010054  -0.002245   0.001435
           51  0.151710750D+03   0.035454  -0.008043   0.005509
           52  0.539187460D+02   0.104407  -0.024426   0.016915
           53  0.206593110D+02   0.241289  -0.061368   0.051417
           54  0.838397600D+01   0.383423  -0.117777   0.113734
           55  0.357701500D+01   0.307851  -0.155049   0.233718
           56  0.154711800D+01   0.068724  -0.019333  -0.071838
           57  0.613013000D+00   0.000222   0.399693  -1.049091
           58  0.246068000D+00   0.001977   0.558942  -0.066627
           59  0.990870000D-01   0.002058   0.171120   1.011999
           60  0.346800000D-01   0.000418   0.007456   0.165605

                  Type         
                   p
           No.      Exponent    Contraction Coefficients
           61  0.833331550D+02   0.001345  -0.001772
           62  0.195576110D+02   0.010236  -0.014562
           63  0.608036500D+01   0.045201  -0.057457
           64  0.217931700D+01   0.141076  -0.212658
           65  0.865150000D+00   0.304739  -0.527171
           66  0.361944000D+00   0.399528  -0.092970
           67  0.154740000D+00   0.271916   0.663003
           68  0.654290000D-01   0.058577   0.336088
           69  0.229000000D-01  -0.000126   0.005470


 Basis set:H.ANO-RCC...2S.                                                                 

                  Type         
                   s
           No.      Exponent    Contraction Coefficients
           70  0.188614450D+03   0.000964  -0.001312
           71  0.282765960D+02   0.007492  -0.010345
           72  0.642483000D+01   0.037595  -0.050495
           73  0.181504100D+01   0.143395  -0.207386
           74  0.591063000D+00   0.348636  -0.435088
           75  0.212149000D+00   0.438297  -0.024730
           76  0.798910000D-01   0.165107   0.322526
           77  0.279620000D-01   0.021023   0.707275


 Basis set:N.ANO-RCC...3S2P.                                                               

                  Type         
                   s
           No.      Exponent    Contraction Coefficients
           78  0.747617150D+05   0.000118  -0.000027   0.000019
           79  0.111236540D+05   0.000517  -0.000118   0.000081
           80  0.251268570D+04   0.002267  -0.000520   0.000366
           81  0.703777290D+03   0.009145  -0.002103   0.001443
           82  0.225478790D+03   0.032393  -0.007568   0.005532
           83  0.796158100D+02   0.097708  -0.023468   0.017244
           84  0.302372830D+02   0.231704  -0.060429   0.052795
           85  0.122636220D+02   0.376890  -0.117055   0.115288
           86  0.526508600D+01   0.317742  -0.155532   0.235259
           87  0.233347100D+01   0.082113  -0.024689  -0.048964
           88  0.901856000D+00   0.003312   0.362505  -1.023218
           89  0.358336000D+00   0.003721   0.555084  -0.148159
           90  0.141093000D+00   0.003165   0.214838   1.021558
           91  0.493830000D-01   0.000460   0.008984   0.172402

                  Type         
                   p
           No.      Exponent    Contraction Coefficients
           92  0.126666570D+03   0.001234  -0.001466
           93  0.298373890D+02   0.009493  -0.011821
           94  0.939403800D+01   0.042940  -0.049831
           95  0.340510400D+01   0.136293  -0.173090
           96  0.135000000D+01   0.292136  -0.473237
           97  0.557696000D+00   0.388789  -0.205511
           98  0.232449000D+00   0.294680   0.591038
           99  0.942640000D-01   0.080129   0.451180
          100  0.329920000D-01   0.000541   0.013675


 Basis set:C.ANO-RCC...3S2P.                                                               

                  Type         
                   s
           No.      Exponent    Contraction Coefficients
          101  0.505575010D+05   0.000113  -0.000025   0.000016
          102  0.752478560D+04   0.000530  -0.000118   0.000075
          103  0.169432760D+04   0.002450  -0.000546   0.000357
          104  0.472822790D+03   0.010054  -0.002245   0.001435
          105  0.151710750D+03   0.035454  -0.008043   0.005509
          106  0.539187460D+02   0.104407  -0.024426   0.016915
          107  0.206593110D+02   0.241289  -0.061368   0.051417
          108  0.838397600D+01   0.383423  -0.117777   0.113734
          109  0.357701500D+01   0.307851  -0.155049   0.233718
          110  0.154711800D+01   0.068724  -0.019333  -0.071838
          111  0.613013000D+00   0.000222   0.399693  -1.049091
          112  0.246068000D+00   0.001977   0.558942  -0.066627
          113  0.990870000D-01   0.002058   0.171120   1.011999
          114  0.346800000D-01   0.000418   0.007456   0.165605

                  Type         
                   p
           No.      Exponent    Contraction Coefficients
          115  0.833331550D+02   0.001345  -0.001772
          116  0.195576110D+02   0.010236  -0.014562
          117  0.608036500D+01   0.045201  -0.057457
          118  0.217931700D+01   0.141076  -0.212658
          119  0.865150000D+00   0.304739  -0.527171
          120  0.361944000D+00   0.399528  -0.092970
          121  0.154740000D+00   0.271916   0.663003
          122  0.654290000D-01   0.058577   0.336088
          123  0.229000000D-01  -0.000126   0.005470


 Basis set:P.ANO-RCC...4S3P.                                                               

                  Type         
                   s
           No.      Exponent    Contraction Coefficients
          170  0.296647550D+06  -0.000278   0.000066   0.000042  -0.000021
          171  0.423800300D+05  -0.000920   0.000218   0.000140  -0.000069
          172  0.125038560D+05  -0.002112   0.000503   0.000324  -0.000158
          173  0.442249370D+04  -0.006118   0.001461   0.000938  -0.000457
          174  0.168184780D+04  -0.017156   0.004147   0.002667  -0.001290
          175  0.663214900D+03  -0.048906   0.012039   0.007700  -0.003702
          176  0.267005850D+03  -0.128061   0.033290   0.021236  -0.009969
          177  0.108895920D+03  -0.280856   0.081855   0.051433  -0.023169
          178  0.447973140D+02  -0.408791   0.158144   0.097900  -0.040366
          179  0.185403120D+02  -0.239938   0.141889   0.085829  -0.033441
          180  0.770709950D+01  -0.020129  -0.179413  -0.105386   0.039743
          181  0.321437500D+01  -0.005211  -0.551931  -0.405333   0.236354
          182  0.134401270D+01  -0.001161  -0.269939  -0.366796   0.478799
          183  0.563087000D+00   0.003590  -0.048811   0.252762  -0.852342
          184  0.236287000D+00   0.014643  -0.145579   0.631092  -1.009743
          185  0.992811000D-01   0.006883  -0.080411   0.309338   1.172316
          186  0.397124000D-01   0.000538  -0.008907   0.021962   0.410274

                  Type         
                   p
           No.      Exponent    Contraction Coefficients
          187  0.101841220D+04   0.000823  -0.000196   0.000196
          188  0.247398200D+03   0.005507  -0.001308   0.001270
          189  0.877904820D+02   0.023423  -0.005636   0.005713
          190  0.342486000D+02   0.085691  -0.020859   0.020321
          191  0.138770140D+02   0.228880  -0.057676   0.059638
          192  0.573030980D+01   0.397112  -0.102511   0.099600
          193  0.239200680D+01   0.367905  -0.105932   0.125349
          194  0.100527670D+01   0.105637   0.060910  -0.109693
          195  0.424392900D+00  -0.000359   0.393662  -0.721429
          196  0.179730600D+00  -0.000516   0.471351  -0.003709
          197  0.762910000D-01  -0.001324   0.204967   0.646806
          198  0.305164000D-01   0.000005   0.030803   0.374610


 Basis set:H.ANO-RCC...2S.                                                                 

                  Type         
                   s
           No.      Exponent    Contraction Coefficients
          199  0.188614450D+03   0.000964  -0.001312
          200  0.282765960D+02   0.007492  -0.010345
          201  0.642483000D+01   0.037595  -0.050495
          202  0.181504100D+01   0.143395  -0.207386
          203  0.591063000D+00   0.348636  -0.435088
          204  0.212149000D+00   0.438297  -0.024730
          205  0.798910000D-01   0.165107   0.322526
          206  0.279620000D-01   0.021023   0.707275


 Basis set:C.ANO-RCC...3S2P.                                                               

                  Type         
                   s
           No.      Exponent    Contraction Coefficients
          207  0.505575010D+05   0.000113  -0.000025   0.000016
          208  0.752478560D+04   0.000530  -0.000118   0.000075
          209  0.169432760D+04   0.002450  -0.000546   0.000357
          210  0.472822790D+03   0.010054  -0.002245   0.001435
          211  0.151710750D+03   0.035454  -0.008043   0.005509
          212  0.539187460D+02   0.104407  -0.024426   0.016915
          213  0.206593110D+02   0.241289  -0.061368   0.051417
          214  0.838397600D+01   0.383423  -0.117777   0.113734
          215  0.357701500D+01   0.307851  -0.155049   0.233718
          216  0.154711800D+01   0.068724  -0.019333  -0.071838
          217  0.613013000D+00   0.000222   0.399693  -1.049091
          218  0.246068000D+00   0.001977   0.558942  -0.066627
          219  0.990870000D-01   0.002058   0.171120   1.011999
          220  0.346800000D-01   0.000418   0.007456   0.165605

                  Type         
                   p
           No.      Exponent    Contraction Coefficients
          221  0.833331550D+02   0.001345  -0.001772
          222  0.195576110D+02   0.010236  -0.014562
          223  0.608036500D+01   0.045201  -0.057457
          224  0.217931700D+01   0.141076  -0.212658
          225  0.865150000D+00   0.304739  -0.527171
          226  0.361944000D+00   0.399528  -0.092970
          227  0.154740000D+00   0.271916   0.663003
          228  0.654290000D-01   0.058577   0.336088
          229  0.229000000D-01  -0.000126   0.005470


 Basis set:N.ANO-RCC...3S2P.                                                               

                  Type         
                   s
           No.      Exponent    Contraction Coefficients
          276  0.747617150D+05   0.000118  -0.000027   0.000019
          277  0.111236540D+05   0.000517  -0.000118   0.000081
          278  0.251268570D+04   0.002267  -0.000520   0.000366
          279  0.703777290D+03   0.009145  -0.002103   0.001443
          280  0.225478790D+03   0.032393  -0.007568   0.005532
          281  0.796158100D+02   0.097708  -0.023468   0.017244
          282  0.302372830D+02   0.231704  -0.060429   0.052795
          283  0.122636220D+02   0.376890  -0.117055   0.115288
          284  0.526508600D+01   0.317742  -0.155532   0.235259
          285  0.233347100D+01   0.082113  -0.024689  -0.048964
          286  0.901856000D+00   0.003312   0.362505  -1.023218
          287  0.358336000D+00   0.003721   0.555084  -0.148159
          288  0.141093000D+00   0.003165   0.214838   1.021558
          289  0.493830000D-01   0.000460   0.008984   0.172402

                  Type         
                   p
           No.      Exponent    Contraction Coefficients
          290  0.126666570D+03   0.001234  -0.001466
          291  0.298373890D+02   0.009493  -0.011821
          292  0.939403800D+01   0.042940  -0.049831
          293  0.340510400D+01   0.136293  -0.173090
          294  0.135000000D+01   0.292136  -0.473237
          295  0.557696000D+00   0.388789  -0.205511
          296  0.232449000D+00   0.294680   0.591038
          297  0.942640000D-01   0.080129   0.451180
          298  0.329920000D-01   0.000541   0.013675


 Basis set:C.ANO-RCC...3S2P.                                                               

                  Type         
                   s
           No.      Exponent    Contraction Coefficients
          299  0.505575010D+05   0.000113  -0.000025   0.000016
          300  0.752478560D+04   0.000530  -0.000118   0.000075
          301  0.169432760D+04   0.002450  -0.000546   0.000357
          302  0.472822790D+03   0.010054  -0.002245   0.001435
          303  0.151710750D+03   0.035454  -0.008043   0.005509
          304  0.539187460D+02   0.104407  -0.024426   0.016915
          305  0.206593110D+02   0.241289  -0.061368   0.051417
          306  0.838397600D+01   0.383423  -0.117777   0.113734
          307  0.357701500D+01   0.307851  -0.155049   0.233718
          308  0.154711800D+01   0.068724  -0.019333  -0.071838
          309  0.613013000D+00   0.000222   0.399693  -1.049091
          310  0.246068000D+00   0.001977   0.558942  -0.066627
          311  0.990870000D-01   0.002058   0.171120   1.011999
          312  0.346800000D-01   0.000418   0.007456   0.165605

                  Type         
                   p
           No.      Exponent    Contraction Coefficients
          313  0.833331550D+02   0.001345  -0.001772
          314  0.195576110D+02   0.010236  -0.014562
          315  0.608036500D+01   0.045201  -0.057457
          316  0.217931700D+01   0.141076  -0.212658
          317  0.865150000D+00   0.304739  -0.527171
          318  0.361944000D+00   0.399528  -0.092970
          319  0.154740000D+00   0.271916   0.663003
          320  0.654290000D-01   0.058577   0.336088
          321  0.229000000D-01  -0.000126   0.005470


 Basis set:H.ANO-RCC...2S.                                                                 

                  Type         
                   s
           No.      Exponent    Contraction Coefficients
          368  0.188614450D+03   0.000964  -0.001312
          369  0.282765960D+02   0.007492  -0.010345
          370  0.642483000D+01   0.037595  -0.050495
          371  0.181504100D+01   0.143395  -0.207386
          372  0.591063000D+00   0.348636  -0.435088
          373  0.212149000D+00   0.438297  -0.024730
          374  0.798910000D-01   0.165107   0.322526
          375  0.279620000D-01   0.021023   0.707275


 Basis set:C.ANO-RCC...3S2P.                                                               

                  Type         
                   s
           No.      Exponent    Contraction Coefficients
          392  0.505575010D+05   0.000113  -0.000025   0.000016
          393  0.752478560D+04   0.000530  -0.000118   0.000075
          394  0.169432760D+04   0.002450  -0.000546   0.000357
          395  0.472822790D+03   0.010054  -0.002245   0.001435
          396  0.151710750D+03   0.035454  -0.008043   0.005509
          397  0.539187460D+02   0.104407  -0.024426   0.016915
          398  0.206593110D+02   0.241289  -0.061368   0.051417
          399  0.838397600D+01   0.383423  -0.117777   0.113734
          400  0.357701500D+01   0.307851  -0.155049   0.233718
          401  0.154711800D+01   0.068724  -0.019333  -0.071838
          402  0.613013000D+00   0.000222   0.399693  -1.049091
          403  0.246068000D+00   0.001977   0.558942  -0.066627
          404  0.990870000D-01   0.002058   0.171120   1.011999
          405  0.346800000D-01   0.000418   0.007456   0.165605

                  Type         
                   p
           No.      Exponent    Contraction Coefficients
          406  0.833331550D+02   0.001345  -0.001772
          407  0.195576110D+02   0.010236  -0.014562
          408  0.608036500D+01   0.045201  -0.057457
          409  0.217931700D+01   0.141076  -0.212658
          410  0.865150000D+00   0.304739  -0.527171
          411  0.361944000D+00   0.399528  -0.092970
          412  0.154740000D+00   0.271916   0.663003
          413  0.654290000D-01   0.058577   0.336088
          414  0.229000000D-01  -0.000126   0.005470


 Basis set:H.ANO-RCC...2S.                                                                 

                  Type         
                   s
           No.      Exponent    Contraction Coefficients
          438  0.188614450D+03   0.000964  -0.001312
          439  0.282765960D+02   0.007492  -0.010345
          440  0.642483000D+01   0.037595  -0.050495
          441  0.181504100D+01   0.143395  -0.207386
          442  0.591063000D+00   0.348636  -0.435088
          443  0.212149000D+00   0.438297  -0.024730
          444  0.798910000D-01   0.165107   0.322526
          445  0.279620000D-01   0.021023   0.707275


 Basis set:O.ANO-RCC...3S2P.                                                               

                  Type         
                   s
           No.      Exponent    Contraction Coefficients
          454  0.105374950D+06   0.000124  -0.000028   0.000026
          455  0.156792400D+05   0.000512  -0.000116   0.000107
          456  0.353454470D+04   0.002153  -0.000491   0.000460
          457  0.987365160D+03   0.008528  -0.001946   0.001796
          458  0.315978750D+03   0.030180  -0.007005   0.006676
          459  0.111654280D+03   0.090997  -0.021678   0.020534
          460  0.426994510D+02   0.217794  -0.056412   0.058286
          461  0.173955960D+02   0.368625  -0.112705   0.121297
          462  0.743830900D+01   0.336671  -0.158912   0.226415
          463  0.322286200D+01   0.096576  -0.033551  -0.042387
          464  0.125387700D+01   0.002145   0.353190  -1.010455
          465  0.495155000D+00   0.001194   0.553420  -0.153869
          466  0.191665000D+00   0.000539   0.230184   0.993453
          467  0.670830000D-01   0.000210   0.011273   0.185873

                  Type         
                   p
           No.      Exponent    Contraction Coefficients
          468  0.200000000D+03   0.000917  -0.000872
          469  0.465333670D+02   0.007377  -0.007064
          470  0.146218090D+02   0.034835  -0.033305
          471  0.531306400D+01   0.114440  -0.114413
          472  0.210252500D+01   0.255497  -0.299011
          473  0.850223000D+00   0.372256  -0.319861
          474  0.337597000D+00   0.332331   0.205509
          475  0.128892000D+00   0.140085   0.593593
          476  0.451120000D-01   0.023958   0.282290


 Basis set:H.ANO-RCC...2S.                                                                 

                  Type         
                   s
           No.      Exponent    Contraction Coefficients
          477  0.188614450D+03   0.000964  -0.001312
          478  0.282765960D+02   0.007492  -0.010345
          479  0.642483000D+01   0.037595  -0.050495
          480  0.181504100D+01   0.143395  -0.207386
          481  0.591063000D+00   0.348636  -0.435088
          482  0.212149000D+00   0.438297  -0.024730
          483  0.798910000D-01   0.165107   0.322526
          484  0.279620000D-01   0.021023   0.707275


 Basis set:RU.ANO-RCC...6S5P3D.                                                            

                  Type         
                   s
           No.      Exponent    Contraction Coefficients
          573  0.240082896D+08   0.000211  -0.000071   0.000030  -0.000012   0.000003  -0.000004
          574  0.333598099D+07   0.000629  -0.000211   0.000090  -0.000037   0.000009  -0.000013
          575  0.671907416D+06   0.001790  -0.000602   0.000258  -0.000104   0.000027  -0.000036
          576  0.167149978D+06   0.004624  -0.001562   0.000669  -0.000271   0.000070  -0.000094
          577  0.483819012D+05   0.011573  -0.003941   0.001691  -0.000685   0.000177  -0.000237
          578  0.157041609D+05   0.028678  -0.009929   0.004269  -0.001726   0.000444  -0.000595
          579  0.557449458D+04   0.070513  -0.025133   0.010854  -0.004407   0.001138  -0.001534
          580  0.212159631D+04   0.163345  -0.062218   0.027110  -0.010968   0.002819  -0.003768
          581  0.851853314D+03   0.313022  -0.136572   0.060764  -0.024870   0.006438  -0.008719
          582  0.357061668D+03   0.381626  -0.222209   0.103280  -0.042096   0.010793  -0.014335
          583  0.154188376D+03   0.185094  -0.113776   0.056435  -0.024478   0.006543  -0.009313
          584  0.658210557D+02   0.011364   0.428140  -0.286404   0.129152  -0.034315   0.047991
          585  0.299216525D+02   0.002334   0.611083  -0.606633   0.281288  -0.072737   0.096103
          586  0.137645551D+02  -0.001765   0.139294   0.067511  -0.022839   0.002327  -0.000112
          587  0.632318098D+01   0.001077   0.006543   0.894943  -0.761252   0.228798  -0.336974
          588  0.286808667D+01  -0.000620  -0.001507   0.316186  -0.322278   0.081582  -0.086654
          589  0.121046730D+01   0.000300   0.000831  -0.003571   0.976106  -0.364392   0.681486
          590  0.474729190D+00  -0.000130  -0.000477   0.005441   0.444214  -0.371157   0.166685
          591  0.165217160D+00   0.000053   0.000193  -0.001837  -0.011142   0.421699  -1.067480
          592  0.505418800D-01  -0.000023  -0.000089   0.000829   0.012353   0.723292  -0.389261
          593  0.202167500D-01   0.000009   0.000032  -0.000295  -0.003091   0.121848   1.258975

                  Type         
                   p
           No.      Exponent    Contraction Coefficients
          594  0.581160979D+06   0.000035  -0.000016   0.000006  -0.000002   0.000006
          595  0.849507118D+05   0.000158  -0.000070   0.000027  -0.000010   0.000026
          596  0.188156282D+05   0.000676  -0.000301   0.000114  -0.000044   0.000113
          597  0.540518171D+04   0.002801  -0.001250   0.000474  -0.000182   0.000462
          598  0.186673392D+04   0.010947  -0.004927   0.001881  -0.000726   0.001869
          599  0.732162845D+03   0.038371  -0.017518   0.006665  -0.002556   0.006499
          600  0.314126008D+03   0.112250  -0.052985   0.020415  -0.007896   0.020423
          601  0.143665970D+03   0.250791  -0.124026   0.047782  -0.018338   0.046693
          602  0.686311581D+02   0.377479  -0.199286   0.078867  -0.030753   0.080318
          603  0.337373411D+02   0.302653  -0.121097   0.041747  -0.015224   0.035386
          604  0.164568246D+02   0.089933   0.240936  -0.122381   0.049119  -0.141664
          605  0.807731060D+01   0.004153   0.544521  -0.315925   0.130231  -0.338543
          606  0.400079628D+01   0.001293   0.325022  -0.144214   0.054204  -0.139581
          607  0.180382157D+01  -0.000502   0.040459   0.454830  -0.264691   1.246980
          608  0.808086240D+00   0.000197  -0.000829   0.580319  -0.293779  -0.374695
          609  0.328931230D+00  -0.000107   0.000805   0.165139   0.189237  -0.968468
          610  0.131572490D+00   0.000045  -0.000274  -0.002135   0.605091   0.161666
          611  0.526289900D-01  -0.000014   0.000078   0.002432   0.377313   0.631744

                  Type         
                   d
           No.      Exponent    Contraction Coefficients
          612  0.851853314D+03   0.001085  -0.000323   0.000374
          613  0.357061668D+03   0.003980  -0.001167   0.001146
          614  0.154188376D+03   0.022867  -0.006841   0.007774
          615  0.658210557D+02   0.086481  -0.025878   0.026764
          616  0.299216525D+02   0.225653  -0.068936   0.078381
          617  0.137645551D+02   0.386845  -0.113078   0.113145
          618  0.632318098D+01   0.372310  -0.091196   0.124455
          619  0.286808667D+01   0.140762   0.131707  -0.232861
          620  0.121046730D+01   0.011589   0.416983  -0.606611
          621  0.474729190D+00   0.000728   0.452520   0.194294
          622  0.165217160D+00  -0.000016   0.232336   0.625342
          623  0.660868600D-01   0.000082   0.021003   0.171283
          624  0.264347500D-01  -0.000023   0.009222   0.046984


 Basis set:H.ANO-RCC...2S.                                                                 

                  Type         
                   s
           No.      Exponent    Contraction Coefficients
          625  0.188614450D+03   0.000964  -0.001312
          626  0.282765960D+02   0.007492  -0.010345
          627  0.642483000D+01   0.037595  -0.050495
          628  0.181504100D+01   0.143395  -0.207386
          629  0.591063000D+00   0.348636  -0.435088
          630  0.212149000D+00   0.438297  -0.024730
          631  0.798910000D-01   0.165107   0.322526
          632  0.279620000D-01   0.021023   0.707275

  Number of primitives                                 1050
  Number of basis functions                             242

--


++    SO/AO info:
      -----------

                    **************************************************
                    ********** Petite list Basis Functions ***********
                    **************************************************


           Basis functions generated by E  

 Basis Label        Type   Center
    1  O1            1s       1
    2  O1            2s       1
    3  O1            3s       1
    4  O1            2px      1
    5  O1            3px      1
    6  O1            2py      1
    7  O1            3py      1
    8  O1            2pz      1
    9  O1            3pz      1
   10  O2            1s       2
   11  O2            2s       2
   12  O2            3s       2
   13  O2            2px      2
   14  O2            3px      2
   15  O2            2py      2
   16  O2            3py      2
   17  O2            2pz      2
   18  O2            3pz      2
   19  C3            1s       3
   20  C3            2s       3
   21  C3            3s       3
   22  C3            2px      3
   23  C3            3px      3
   24  C3            2py      3
   25  C3            3py      3
   26  C3            2pz      3
   27  C3            3pz      3
   28  H4            1s       4
   29  H4            2s       4
   30  N5            1s       5
   31  N5            2s       5
   32  N5            3s       5
   33  N5            2px      5
   34  N5            3px      5
   35  N5            2py      5
   36  N5            3py      5
   37  N5            2pz      5
   38  N5            3pz      5
   39  C6            1s       6
   40  C6            2s       6
   41  C6            3s       6
   42  C6            2px      6
   43  C6            3px      6
   44  C6            2py      6
   45  C6            3py      6
   46  C6            2pz      6
   47  C6            3pz      6
   48  C7            1s       7
   49  C7            2s       7
   50  C7            3s       7
   51  C7            2px      7
   52  C7            3px      7
   53  C7            2py      7
   54  C7            3py      7
   55  C7            2pz      7
   56  C7            3pz      7
   57  C8            1s       8
   58  C8            2s       8
   59  C8            3s       8
   60  C8            2px      8
   61  C8            3px      8
   62  C8            2py      8
   63  C8            3py      8
   64  C8            2pz      8
   65  C8            3pz      8
   66  P9            1s       9
   67  P9            2s       9
   68  P9            3s       9
   69  P9            4s       9
   70  P9            2px      9
   71  P9            3px      9
   72  P9            4px      9
   73  P9            2py      9
   74  P9            3py      9
   75  P9            4py      9
   76  P9            2pz      9
   77  P9            3pz      9
   78  P9            4pz      9
   79  H10           1s      10
   80  H10           2s      10
   81  C11           1s      11
   82  C11           2s      11
   83  C11           3s      11
   84  C11           2px     11
   85  C11           3px     11
   86  C11           2py     11
   87  C11           3py     11
   88  C11           2pz     11
   89  C11           3pz     11
   90  C12           1s      12
   91  C12           2s      12
   92  C12           3s      12
   93  C12           2px     12
   94  C12           3px     12
   95  C12           2py     12
   96  C12           3py     12
   97  C12           2pz     12
   98  C12           3pz     12
   99  C13           1s      13
  100  C13           2s      13
  101  C13           3s      13
  102  C13           2px     13
  103  C13           3px     13
  104  C13           2py     13
  105  C13           3py     13
  106  C13           2pz     13
  107  C13           3pz     13
  108  N14           1s      14
  109  N14           2s      14
  110  N14           3s      14
  111  N14           2px     14
  112  N14           3px     14
  113  N14           2py     14
  114  N14           3py     14
  115  N14           2pz     14
  116  N14           3pz     14
  117  C15           1s      15
  118  C15           2s      15
  119  C15           3s      15
  120  C15           2px     15
  121  C15           3px     15
  122  C15           2py     15
  123  C15           3py     15
  124  C15           2pz     15
  125  C15           3pz     15
  126  C16           1s      16
  127  C16           2s      16
  128  C16           3s      16
  129  C16           2px     16
  130  C16           3px     16
  131  C16           2py     16
  132  C16           3py     16
  133  C16           2pz     16
  134  C16           3pz     16
  135  C17           1s      17
  136  C17           2s      17
  137  C17           3s      17
  138  C17           2px     17
  139  C17           3px     17
  140  C17           2py     17
  141  C17           3py     17
  142  C17           2pz     17
  143  C17           3pz     17
  144  H18           1s      18
  145  H18           2s      18
  146  H19           1s      19
  147  H19           2s      19
  148  H20           1s      20
  149  H20           2s      20
  150  C21           1s      21
  151  C21           2s      21
  152  C21           3s      21
  153  C21           2px     21
  154  C21           3px     21
  155  C21           2py     21
  156  C21           3py     21
  157  C21           2pz     21
  158  C21           3pz     21
  159  C22           1s      22
  160  C22           2s      22
  161  C22           3s      22
  162  C22           2px     22
  163  C22           3px     22
  164  C22           2py     22
  165  C22           3py     22
  166  C22           2pz     22
  167  C22           3pz     22
  168  H23           1s      23
  169  H23           2s      23
  170  H24           1s      24
  171  H24           2s      24
  172  O25           1s      25
  173  O25           2s      25
  174  O25           3s      25
  175  O25           2px     25
  176  O25           3px     25
  177  O25           2py     25
  178  O25           3py     25
  179  O25           2pz     25
  180  O25           3pz     25
  181  H26           1s      26
  182  H26           2s      26
  183  H27           1s      27
  184  H27           2s      27
  185  H28           1s      28
  186  H28           2s      28
  187  H29           1s      29
  188  H29           2s      29
  189  H30           1s      30
  190  H30           2s      30
  191  H31           1s      31
  192  H31           2s      31
  193  H32           1s      32
  194  H32           2s      32
  195  H33           1s      33
  196  H33           2s      33
  197  H34           1s      34
  198  H34           2s      34
  199  H35           1s      35
  200  H35           2s      35
  201  H36           1s      36
  202  H36           2s      36
  203  H37           1s      37
  204  H37           2s      37
  205  RU38          1s      38
  206  RU38          2s      38
  207  RU38          3s      38
  208  RU38          4s      38
  209  RU38          5s      38
  210  RU38          6s      38
  211  RU38          2px     38
  212  RU38          3px     38
  213  RU38          4px     38
  214  RU38          5px     38
  215  RU38          6px     38
  216  RU38          2py     38
  217  RU38          3py     38
  218  RU38          4py     38
  219  RU38          5py     38
  220  RU38          6py     38
  221  RU38          2pz     38
  222  RU38          3pz     38
  223  RU38          4pz     38
  224  RU38          5pz     38
  225  RU38          6pz     38
  226  RU38          3d2-    38
  227  RU38          4d2-    38
  228  RU38          5d2-    38
  229  RU38          3d1-    38
  230  RU38          4d1-    38
  231  RU38          5d1-    38
  232  RU38          3d0     38
  233  RU38          4d0     38
  234  RU38          5d0     38
  235  RU38          3d1+    38
  236  RU38          4d1+    38
  237  RU38          5d1+    38
  238  RU38          3d2+    38
  239  RU38          4d2+    38
  240  RU38          5d2+    38
  241  H39           1s      39
  242  H39           2s      39

      Basis set specifications :
      Symmetry species        a  
      Basis functions         242
--


            Nuclear Potential Energy           2759.14579146 au

--- Stop Module: gateway at Thu Jul  9 18:24:21 2020 /rc=_RC_ALL_IS_WELL_ ---
*** files: GMe-Cis-D0-VDZ-SA-CAS1311-Pi-ExpBas.RICDLib xmldump
    saved to directory /home/ubuntu/newcas/build/calc/200709
--- Module gateway spent 23 seconds ---

>>> COPY /home/ubuntu/newcas/build/calc/200709/GMe-Cis-D0-MB-SA-CAS1311-Pi-Local-CAS-Guess-ReRun.RunFile RUNFIL1

>>> COPY /home/ubuntu/newcas/build/calc/200709/GMe-Cis-D0-MB-SA-CAS1311-Pi-Local-CAS-Guess-ReRun.RasOrb INPORB

>>> COPY GMe-Cis-D0-VDZ-SA-CAS1311-Pi-ExpBas.RunFile RUNFIL2

--- Start Module: expbas at Thu Jul  9 18:24:21 2020 ---

()()()()()()()()()()()()()()()()()()()()()()()()()()()()()()()()()()()()()()()()()()()()()()()()()()

                                              &EXPBAS

[...]
      3py      0.0023  0.0000  0.0000  0.0000  0.0000  0.0000  0.0000  0.0000  0.0000  0.0000  0.0000  0.0000
      4s       0.0000  0.0000  0.0000  0.0000  0.0000  0.0000  0.0000  0.0000  0.0000  0.0000  0.0000  0.0000
      3d2+     0.0000  0.0000  0.0000  0.0000  0.0000  0.0000  0.0000  0.0000  0.0000  0.0000  0.0000  0.0000
      3d1+     0.0000  0.0000  0.0000  0.0000  0.0000  0.0000  0.0000  0.0000  0.0000  0.0000  0.0000  0.0000
      3d0      0.0000  0.0000  0.0000  0.0000  0.0000  0.0000  0.0000  0.0000  0.0000  0.0000  0.0000  0.0000
      3d1-     0.0000  0.0000  0.0000  0.0000  0.0000  0.0000  0.0000  0.0000  0.0000  0.0000  0.0000  0.0000
      3d2-     0.0000  0.0000  0.0000  0.0000  0.0000  0.0000  0.0000  0.0000  0.0000  0.0000  0.0000  0.0000
      4px      0.0000  0.0000  0.0000  0.0000  0.0000  0.0000  0.0000  0.0000  0.0000  0.0000  0.0000  0.0000
      4pz      0.0000  0.0000  0.0000  0.0000  0.0000  0.0000  0.0000  0.0000  0.0000  0.0000  0.0000  0.0000
      4py      0.0000  0.0000  0.0000  0.0000  0.0000  0.0000  0.0000  0.0000  0.0000  0.0000  0.0000  0.0000
      5s       0.0000  0.0000  0.0000  0.0000  0.0000  0.0000  0.0000  0.0000  0.0000  0.0000  0.0000  0.0000
      4d2+     0.0000  0.0000  0.0000  0.0000  0.0000  0.0000  0.0000  0.0000  0.0000  0.0000  0.0000  0.0000
      4d1+     0.0000  0.0000  0.0000  0.0000  0.0000  0.0000  0.0000  0.0000  0.0000  0.0000  0.0000  0.0000
      4d0      0.0000  0.0000  0.0000  0.0000  0.0000  0.0000  0.0000  0.0000  0.0000  0.0000  0.0000  0.0000
      4d1-     0.0000  0.0000  0.0000  0.0000  0.0000  0.0000  0.0000  0.0000  0.0000  0.0000  0.0000  0.0000
      4d2-     0.0000  0.0000  0.0000  0.0000  0.0000  0.0000  0.0000  0.0000  0.0000  0.0000  0.0000  0.0000
      5px      0.0000  0.0000  0.0000  0.0000  0.0000  0.0000  0.0000  0.0000  0.0000  0.0000  0.0000  0.0000
      5pz      0.0000  0.0000  0.0000  0.0000  0.0000  0.0000  0.0000  0.0000  0.0000  0.0000  0.0000  0.0000
      5py      0.0000  0.0000  0.0000  0.0000  0.0000  0.0000  0.0000  0.0000  0.0000  0.0000  0.0000  0.0000
      6s       0.0000  0.0000  0.0000  0.0000  0.0000  0.0000  0.0000  0.0000  0.0000  0.0000  0.0000  0.0000
      5d2+     0.0000  0.0000  0.0000  0.0000  0.0000  0.0000  0.0000  0.0000  0.0000  0.0000  0.0000  0.0000
      5d1+     0.0000  0.0000  0.0000  0.0000  0.0000  0.0000  0.0000  0.0000  0.0000  0.0000  0.0000  0.0000
      5d0      0.0000  0.0000  0.0000  0.0000  0.0000  0.0000  0.0000  0.0000  0.0000  0.0000  0.0000  0.0000
      5d1-     0.0000  0.0000  0.0000  0.0000  0.0000  0.0000  0.0000  0.0000  0.0000  0.0000  0.0000  0.0000
      5d2-     0.0000  0.0000  0.0000  0.0000  0.0000  0.0000  0.0000  0.0000  0.0000  0.0000  0.0000  0.0000
      6px      0.0000  0.0000  0.0000  0.0000  0.0000  0.0000  0.0000  0.0000  0.0000  0.0000  0.0000  0.0000
      6pz      0.0000  0.0000  0.0000  0.0000  0.0000  0.0000  0.0000  0.0000  0.0000  0.0000  0.0000  0.0000
      6py      0.0000  0.0000  0.0000  0.0000  0.0000  0.0000  0.0000  0.0000  0.0000  0.0000  0.0000  0.0000
      Total   -0.0115 -0.0000 -0.0001 -0.0002 -0.0000  0.0000 -0.0000 -0.0001  0.0001 -0.0003 -0.0001 -0.0000

                H37     RU38    H39   
      1s      -0.0000 -0.0000 -0.0002
      2s      -0.0001 -0.0000 -0.0005
      2px      0.0000 -0.0000  0.0000
      2pz      0.0000  0.0000  0.0000
      2py      0.0000  0.0000  0.0000
      3s       0.0000  0.0000  0.0000
      3px      0.0000  0.0000  0.0000
      3pz      0.0000 -0.0000  0.0000
      3py      0.0000  0.0000  0.0000
      4s       0.0000  0.0000  0.0000
      3d2+     0.0000  0.0000  0.0000
      3d1+     0.0000  0.0000  0.0000
      3d0      0.0000  0.0000  0.0000
      3d1-     0.0000  0.0000  0.0000
      3d2-     0.0000  0.0000  0.0000
      4px      0.0000  0.0000  0.0000
      4pz      0.0000 -0.0000  0.0000
      4py      0.0000  0.0000  0.0000
      5s       0.0000 -0.0001  0.0000
      4d2+     0.0000  0.0073  0.0000
      4d1+     0.0000 -0.0009  0.0000
      4d0      0.0000  0.0076  0.0000
      4d1-     0.0000 -0.0061  0.0000
      4d2-     0.0000  0.0117  0.0000
      5px      0.0000  0.0000  0.0000
      5pz      0.0000  0.0001  0.0000
      5py      0.0000  0.0014  0.0000
      6s       0.0000 -0.0002  0.0000
      5d2+     0.0000 -0.0000  0.0000
      5d1+     0.0000  0.0005  0.0000
      5d0      0.0000  0.0004  0.0000
      5d1-     0.0000  0.0026  0.0000
      5d2-     0.0000  0.0001  0.0000
      6px      0.0000  0.0000  0.0000
      6pz      0.0000  0.0000  0.0000
      6py      0.0000  0.0002  0.0000
      Total   -0.0001  0.0245 -0.0008

      Total electronic spin=    1.000000
--



      LoProp population analysis for root number:  5
      -----------------------------------------------


++    LoProp analysis:
      ----------------



  Input file to MOLDEN was generated!


++    Static properties:
      ------------------


      LoProp Charges per center


                   O1       O2       C3       H4       N5       C6       C7       C8       P9       H10   
      Nuclear      8.0000   8.0000   6.0000   1.0000   7.0000   6.0000   6.0000   6.0000  15.0000   1.0000
      Electronic  -8.4482  -8.7590  -6.1804  -0.8467  -7.2151  -6.0844  -6.4751  -6.4793 -14.3200  -0.9145

      Total       -0.4482  -0.7590  -0.1804   0.1533  -0.2151  -0.0844  -0.4751  -0.4793   0.6800   0.0855


                   C11      C12      C13      N14      C15      C16      C17      H18      H19      H20   
      Nuclear      6.0000   6.0000   6.0000   7.0000   6.0000   6.0000   6.0000   1.0000   1.0000   1.0000
      Electronic  -6.1765  -6.1765  -5.8719  -7.2127  -6.3675  -5.8639  -6.1424  -0.8797  -0.8669  -0.8899

      Total       -0.1765  -0.1765   0.1281  -0.2127  -0.3675   0.1361  -0.1424   0.1203   0.1331   0.1101


                   C21      C22      H23      H24      O25      H26      H27      H28      H29      H30   
      Nuclear      6.0000   6.0000   1.0000   1.0000   8.0000   1.0000   1.0000   1.0000   1.0000   1.0000
      Electronic  -6.1353  -6.0662  -0.8818  -0.8780  -8.4252  -0.8986  -0.8686  -0.8492  -0.8659  -0.8741

      Total       -0.1353  -0.0662   0.1182   0.1220  -0.4252   0.1014   0.1314   0.1508   0.1341   0.1259


                   H31      H32      H33      H34      H35      H36      H37      RU38     H39   
      Nuclear      1.0000   1.0000   1.0000   1.0000   1.0000   1.0000   1.0000  44.0000   1.0000
      Electronic  -0.8917  -0.8640  -0.9325  -0.8602  -0.8958  -0.9241  -0.8787 -43.1344  -0.7049

      Total        0.1083   0.1360   0.0675   0.1398   0.1042   0.0759   0.1213   0.8656   0.2951
--


      Natural Bond Order analysis for root number:  5

++    Natural Bond Order analysis
      ---------------------------
      Based on LoProp computed density
      -------------------------------------------------------------------------------------
      Atom A       Atom B       Bond Order | Atom A       Atom B       Bond Order
        O2           RU38           1.992  |   N5           C11            0.998
        C3           H32            1.000  |   C15          C16            1.000
        C3           H33            1.000  |   C15          H19            1.000
        C3           H34            1.000  |   C17          C22            1.000
        C7           H26            1.000  |   C21          C22            1.000
        C7           H27            1.000  |   O1           RU38           0.992
        C7           H28            1.000  |   O1           H39            0.992
        C8           H29            1.000  |   H4           C6             1.000
        C8           H30            1.000  |   N5           C6             0.985
        C8           H31            1.000  |   N5           RU38           0.992
        C11          H35            1.000  |   C6           H10            1.000
        C11          H36            1.000  |   C7           P9             0.989
        C11          H37            1.000  |   C8           P9             0.986
        C12          O25            2.993  |   P9           C15            1.000
        C12          RU38           1.992  |   P9           RU38           1.992
        C15          H20            1.000  |   C13          N14            1.000
        C17          H18            1.000  |   C13          C17            1.000
        C21          H23            1.000  |   N14          C16            1.000
        C22          H24            1.000  |   N14          RU38           0.992
        C3           N5             0.999  |   C16          C21            1.000
        C6           C13            0.985  |
      -------------------------------------------------------------------------------------
      NBO located     81.997 core electrons.
      NBO located     15.355 lone pair electrons.
      NBO located     91.760 electrons involved in   41 bonds.
      NBO analysis, and just that ONLY, did not converge to a
      proper answer, sorry. Calculation will continue as normal.
--

--


  Input file to MOLDEN was generated!


  Input file to MOLDEN was generated!


  Input file to MOLDEN was generated!


  Input file to MOLDEN was generated!


  Input file to MOLDEN was generated!


  Input file to MOLDEN was generated!

      Average orbitals are written to the RASORB file
      Natural orbitals for root   1 are written to the RASORB.1 file
      Natural orbitals for root   2 are written to the RASORB.2 file
      Natural orbitals for root   3 are written to the RASORB.3 file
      Natural orbitals for root   4 are written to the RASORB.4 file
      Natural orbitals for root   5 are written to the RASORB.5 file
      Spin density orbitals for root   1 are written to the SPDORB.1 file
      Spin density orbitals for root   2 are written to the SPDORB.2 file
      Spin density orbitals for root   3 are written to the SPDORB.3 file
      Spin density orbitals for root   4 are written to the SPDORB.4 file
      Spin density orbitals for root   5 are written to the SPDORB.5 file


  Timings
  -------

  - - - - - - - - - - - - - - - - - - - - - - - - - - - - - - - - - -
                                                    time    fraction
  - - - - - - - - - - - - - - - - - - - - - - - - - - - - - - - - - -
  1) Input section                         :        0.37        0.00
     - Input processing                    :        0.37        0.00
     - Create GUGA tables                  :        0.00        0.00
     - Create determinant tables           :        0.00        0.00
  2) Wave function optimization            :      607.85        0.97
     - transformation section              :      324.24        0.52
       . AO=>MO integral transformation    :        0.00        0.00
       . Fock-matrix generation            :        0.00        0.00
     - CI optimization                     :      265.22        0.42
       . construct Hdiag                   :        2.04        0.00
       . construct Hsel                    :        5.41        0.01
       . Davidson diagonalization          :     1723.78        2.76
         .. sigma vector generation        :     1324.28        2.12
            |-> aa/bb 1-electron           :       11.10        0.02
            |-> aa/bb 2-electron           :       53.90        0.09
            \-> alpha-beta                 :       92.89        0.15
                |-> C prefetch             :        3.42        0.01
                |-> matrix multiply        :       85.65        0.14
                \-> S scatter              :        1.72        0.00
         .. HCSCE                          :        2.76        0.00
         .. page_in/page_out               :      239.13        0.38
       . density matrix generation         :      444.78        0.71
            |-> aa/bb 1-electron           :        3.76        0.01
            |-> aa/bb 2-electron           :       19.55        0.03
            \-> alpha-beta                 :       42.68        0.07
     - orbital optimization                :       18.15        0.03
  3) Output section                        :       17.36        0.03
     - Create/update the file RELAX        :        7.85        0.01
     - Create/update the file RUNFILE      :        0.00        0.00
     - Create/update the file JOBIPH       :        9.51        0.02

  - - - - - - - - - - - - - - - - - - - - - - - - - - - - - - - - - -
     Total                                 :      625.58        0.00
  - - - - - - - - - - - - - - - - - - - - - - - - - - - - - - - - - -

++ I/O STATISTICS
 
  I. General I/O information
  - - - - - - - - - - - - - - - - - - - - - - - - - - - - - - - - - - - - - - - - - - -
  Unit  Name          Flsize      Write/Read            MBytes           Write/Read
                      (MBytes)       Calls              In/Out           Time, sec.
  - - - - - - - - - - - - - - - - - - - - - - - - - - - - - - - - - - - - - - - - - - -
   1  RUNFILE          16.05 .    4347/   45007 .     38.4/    475.3 .       0/       0
   2  ONEINT            0.00 .       0/    7803 .      0.0/    686.6 .       0/       0
   3  TRAINT            0.00 .      43/      40 .     57.6/     53.6 .       0/       0
   4  TEMP01            0.00 .       0/       0 .      0.0/      0.0 .       0/       0
   5  TEMP02            0.00 .     187/    1295 .     21.8/    150.6 .       0/       0
   6  JOBIPH            0.00 .    1274/     550 .    195.4/    266.5 .       0/       0
   7  CHRED             0.48 .       0/      90 .      0.0/     10.7 .       0/       0
   8  CHVEC1          203.91 .       0/    1591 .      0.0/   8768.3 .       0/       1
   9  CHORST            0.03 .       0/      12 .      0.0/      0.0 .       0/       0
  10  CHOMAP            0.01 .       0/       0 .      0.0/      0.0 .       0/       0
  11  CIDIA            11.63 .     446/     446 .     60.5/     60.5 .       0/       0
  12  LUCVECT           5.82 .   11128/   18124 .   1618.1/   2974.4 .       0/       1
  13  HCFILE            1.16 .    1800/    1360 .    261.7/    261.7 .       0/       0
  14  LUSC1             2.33 .    4700/    6750 .    587.4/    977.1 .       0/       0
  15  LUSC2             2.33 .    2130/    2860 .    261.7/    383.9 .       0/       0
  16  LUSC3             2.33 .    1650/    1650 .    191.9/    191.9 .       0/       0
  17  LUSC34            1.16 .    9328/    8316 .   1356.3/   1612.2 .       0/       0
  18  LUSC35            0.00 .       0/       0 .      0.0/      0.0 .       0/       0
  19  LUSC36            0.00 .       0/       0 .      0.0/      0.0 .       0/       0
  20  LUSC37            0.00 .       0/       0 .      0.0/      0.0 .       0/       0
  21  LUSC38            0.00 .       0/       0 .      0.0/      0.0 .       0/       0
  22  LUSC39            0.00 .       0/       0 .      0.0/      0.0 .       0/       0
  23  LUSC40            0.00 .       0/       0 .      0.0/      0.0 .       0/       0
  24  LUMOUT            0.00 .       0/       0 .      0.0/      0.0 .       0/       0
  25  CHODIAG           0.22 .       0/      43 .      0.0/      9.6 .       0/       0
  - - - - - - - - - - - - - - - - - - - - - - - - - - - - - - - - - - - - - - - - - - -
   *  TOTAL           247.47 .   37033/   95937 .   4650.9/  16883.1 .       1/       3
  - - - - - - - - - - - - - - - - - - - - - - - - - - - - - - - - - - - - - - - - - - -
 
  II. I/O Access Patterns
  - - - - - - - - - - - - - - - - - - - -
  Unit  Name               % of random
                         Write/Read calls
  - - - - - - - - - - - - - - - - - - - -
   1  RUNFILE             28.6/  11.6
   2  ONEINT               0.0/   7.2
   3  TRAINT              97.7/ 100.0
   4  TEMP01               0.0/   0.0
   5  TEMP02              99.5/ 100.0
   6  JOBIPH              96.8/ 100.0
   7  CHRED                0.0/  47.8
   8  CHVEC1               0.0/   2.6
   9  CHORST               0.0/   0.0
  10  CHOMAP               0.0/   0.0
  11  CIDIA                9.4/   9.6
  12  LUCVECT             12.5/  14.1
  13  HCFILE              12.4/  16.5
  14  LUSC1                8.4/  10.7
  15  LUSC2                7.9/   9.6
  16  LUSC3                6.6/   6.7
  17  LUSC34              12.5/  16.7
  18  LUSC35               0.0/   0.0
  19  LUSC36               0.0/   0.0
  20  LUSC37               0.0/   0.0
  21  LUSC38               0.0/   0.0
  22  LUSC39               0.0/   0.0
  23  LUSC40               0.0/   0.0
  24  LUMOUT               0.0/   0.0
  25  CHODIAG              0.0/   0.0
  - - - - - - - - - - - - - - - - - - - -
--
 ###############################################################################
 ###############################################################################
 ###                                                                         ###
 ###                                                                         ###
 ###    WARNING: RunFile label BirthCertificate                              ###
 ###    was used       66 times                                              ###
 ###                                                                         ###
 ###                                                                         ###
 ###############################################################################
 ###############################################################################
 ###############################################################################
 ###############################################################################
 ###                                                                         ###
 ###                                                                         ###
 ###    WARNING: RunFile label nBas                                          ###
 ###    was used       44 times                                              ###
 ###                                                                         ###
 ###                                                                         ###
 ###############################################################################
 ###############################################################################
--- Stop Module: rasscf at Thu Jul  9 18:35:20 2020 /rc=_RC_ALL_IS_WELL_ ---
*** files: GMe-Cis-D0-VDZ-SA-CAS1311-Pi-ExpBas.LprOrb GMe-Cis-D0-VDZ-SA-CAS1311-Pi-ExpBas.rasscf.molden.2 GMe-Cis-D0-VDZ-SA-CAS1311-Pi-ExpBas.rasscf.molden.5
           GMe-Cis-D0-VDZ-SA-CAS1311-Pi-ExpBas.rasscf.molden.3 GMe-Cis-D0-VDZ-SA-CAS1311-Pi-ExpBas.rasscf.molden GMe-Cis-D0-VDZ-SA-CAS1311-Pi-ExpBas.rasscf.molden.1
           GMe-Cis-D0-VDZ-SA-CAS1311-Pi-ExpBas.rasscf.molden.4 GMe-Cis-D0-VDZ-SA-CAS1311-Pi-ExpBas.LoProp.molden GMe-Cis-D0-VDZ-SA-CAS1311-Pi-ExpBas.RasOrb.3
           GMe-Cis-D0-VDZ-SA-CAS1311-Pi-ExpBas.RasOrb.5 GMe-Cis-D0-VDZ-SA-CAS1311-Pi-ExpBas.RasOrb.2 GMe-Cis-D0-VDZ-SA-CAS1311-Pi-ExpBas.RasOrb.4
           GMe-Cis-D0-VDZ-SA-CAS1311-Pi-ExpBas.RasOrb.1 GMe-Cis-D0-VDZ-SA-CAS1311-Pi-ExpBas.RasOrb GMe-Cis-D0-VDZ-SA-CAS1311-Pi-ExpBas.rasscf.h5
           GMe-Cis-D0-VDZ-SA-CAS1311-Pi-ExpBas.SpdOrb.4 GMe-Cis-D0-VDZ-SA-CAS1311-Pi-ExpBas.SpdOrb.1 GMe-Cis-D0-VDZ-SA-CAS1311-Pi-ExpBas.SpdOrb.2
           GMe-Cis-D0-VDZ-SA-CAS1311-Pi-ExpBas.SpdOrb.5 GMe-Cis-D0-VDZ-SA-CAS1311-Pi-ExpBas.SpdOrb.3 xmldump
    saved to directory /home/ubuntu/newcas/build/calc/200709
--- Module rasscf spent 10 minutes 25 seconds ---

>>> COPY GMe-Cis-D0-VDZ-SA-CAS1311-Pi-ExpBas.RunFile /home/ubuntu/newcas/build/calc/200709/GMe-Cis-D0-VDZ-SA-CAS1311-Pi-ExpBas.RunFile

.##################.
.# Happy landing! #.
.##################.

    Timing: Wall=682.62 User=3131.45 System=56.81
***************************************************************************************
*** WorkDir at /tmp/molcas_calculations/GMe-Cis-D0-VDZ-SA-CAS1311-Pi-ExpBas cleaned ***
***************************************************************************************
