 Entering Gaussian System, Link 0=g16
 Initial command:
 /cluster/chemistry/gaussian/g16/l1.exe "/scratch/js1212.15167/scratch/Gau-24761.inp" -scrdir="/scratch/js1212.15167/scratch/"
 Entering Link 1 = /cluster/chemistry/gaussian/g16/l1.exe PID=     24762.
  
 Copyright (c) 1988,1990,1992,1993,1995,1998,2003,2009,2016,
            Gaussian, Inc.  All Rights Reserved.
  
 This is part of the Gaussian(R) 16 program.  It is based on
 the Gaussian(R) 09 system (copyright 2009, Gaussian, Inc.),
 the Gaussian(R) 03 system (copyright 2003, Gaussian, Inc.),
 the Gaussian(R) 98 system (copyright 1998, Gaussian, Inc.),
 the Gaussian(R) 94 system (copyright 1995, Gaussian, Inc.),
 the Gaussian 92(TM) system (copyright 1992, Gaussian, Inc.),
 the Gaussian 90(TM) system (copyright 1990, Gaussian, Inc.),
 the Gaussian 88(TM) system (copyright 1988, Gaussian, Inc.),
 the Gaussian 86(TM) system (copyright 1986, Carnegie Mellon
 University), and the Gaussian 82(TM) system (copyright 1983,
 Carnegie Mellon University). Gaussian is a federally registered
 trademark of Gaussian, Inc.
  
 This software contains proprietary and confidential information,
 including trade secrets, belonging to Gaussian, Inc.
  
 This software is provided under written license and may be
 used, copied, transmitted, or stored only in accord with that
 written license.
  
 The following legend is applicable only to US Government
 contracts under FAR:
  
                    RESTRICTED RIGHTS LEGEND
  
 Use, reproduction and disclosure by the US Government is
 subject to restrictions as set forth in subparagraphs (a)
 and (c) of the Commercial Computer Software - Restricted
 Rights clause in FAR 52.227-19.
  
 Gaussian, Inc.
 340 Quinnipiac St., Bldg. 40, Wallingford CT 06492
  
  
 ---------------------------------------------------------------
 Warning -- This program may not be used in any manner that
 competes with the business of Gaussian, Inc. or will provide
 assistance to any competitor of Gaussian, Inc.  The licensee
 of this program is prohibited from giving any competitor of
 Gaussian, Inc. access to this program.  By using this program,
 the user acknowledges that Gaussian, Inc. is engaged in the
 business of creating and licensing software in the field of
 computational chemistry and represents and warrants to the
 licensee that it is not a competitor of Gaussian, Inc. and that
 it will not use this program in any manner prohibited above.
 ---------------------------------------------------------------
  

 Cite this work as:
 Gaussian 16, Revision A.03,
 M. J. Frisch, G. W. Trucks, H. B. Schlegel, G. E. Scuseria, 
 M. A. Robb, J. R. Cheeseman, G. Scalmani, V. Barone, 
 G. A. Petersson, H. Nakatsuji, X. Li, M. Caricato, A. V. Marenich, 
 J. Bloino, B. G. Janesko, R. Gomperts, B. Mennucci, H. P. Hratchian, 
 J. V. Ortiz, A. F. Izmaylov, J. L. Sonnenberg, D. Williams-Young, 
 F. Ding, F. Lipparini, F. Egidi, J. Goings, B. Peng, A. Petrone, 
 T. Henderson, D. Ranasinghe, V. G. Zakrzewski, J. Gao, N. Rega, 
 G. Zheng, W. Liang, M. Hada, M. Ehara, K. Toyota, R. Fukuda, 
 J. Hasegawa, M. Ishida, T. Nakajima, Y. Honda, O. Kitao, H. Nakai, 
 T. Vreven, K. Throssell, J. A. Montgomery, Jr., J. E. Peralta, 
 F. Ogliaro, M. J. Bearpark, J. J. Heyd, E. N. Brothers, K. N. Kudin, 
 V. N. Staroverov, T. A. Keith, R. Kobayashi, J. Normand, 
 K. Raghavachari, A. P. Rendell, J. C. Burant, S. S. Iyengar, 
 J. Tomasi, M. Cossi, J. M. Millam, M. Klene, C. Adamo, R. Cammi, 
 J. W. Ochterski, R. L. Martin, K. Morokuma, O. Farkas, 
 J. B. Foresman, and D. J. Fox, Gaussian, Inc., Wallingford CT, 2016.
 
 ******************************************
 Gaussian 16:  ES64L-G16RevA.03 25-Dec-2016
                11-Nov-2018 
 ******************************************
 %rwf=/scratch/js1212.15167/H3PO4-GPOF.rwf
 %nosave
 %nprocshared=16
 Will use up to   16 processors via shared memory.
 %mem=3000MB
 %chk=/scratch/js1212.15167/H3PO4-GPOF.chk
 ----------------------------------------------------
 # opt freq pbe1pbe/cc-pVDZ EmpiricalDispersion=GD3BJ
 ----------------------------------------------------
 1/18=20,19=15,26=3,38=1/1,3;
 2/9=110,12=2,17=6,18=5,40=1/2;
 3/5=16,11=2,25=1,30=1,71=1,74=-13,124=41/1,2,3;
 4//1;
 5/5=2,38=5/2;
 6/7=2,8=2,9=2,10=2,28=1/1;
 7//1,2,3,16;
 1/18=20,19=15,26=3/3(2);
 2/9=110/2;
 99//99;
 2/9=110/2;
 3/5=16,11=2,25=1,30=1,71=1,74=-13,124=41/1,2,3;
 4/5=5,16=3,69=1/1;
 5/5=2,38=5/2;
 7//1,2,3,16;
 1/18=20,19=15,26=3/3(-5);
 2/9=110/2;
 6/7=2,8=2,9=2,10=2,19=2,28=1/1;
 99/9=1/99;
 -------------------
 Title Card Required
 -------------------
 Symbolic Z-matrix:
 Charge =  0 Multiplicity = 1
 P                     0.62788  -0.47714   0.66929 
 O                     2.24586  -0.49478   0.03789 
 O                    -0.53832  -0.21939  -0.59091 
 O                     0.46043   0.69956   1.93518 
 H                     1.02423   0.35811   2.67443 
 H                    -1.41722  -0.3327   -0.14853 
 H                     2.34637  -1.38549  -0.38338 
 O                     0.34745  -1.8737    1.28839 
 

 GradGradGradGradGradGradGradGradGradGradGradGradGradGradGradGradGradGrad
 Berny optimization.
 Initialization pass.
                           ----------------------------
                           !    Initial Parameters    !
                           ! (Angstroms and Degrees)  !
 --------------------------                            --------------------------
 ! Name  Definition              Value          Derivative Info.                !
 --------------------------------------------------------------------------------
 ! R1    R(1,2)                  1.7369         estimate D2E/DX2                !
 ! R2    R(1,3)                  1.7362         estimate D2E/DX2                !
 ! R3    R(1,4)                  1.7364         estimate D2E/DX2                !
 ! R4    R(1,8)                  1.5532         estimate D2E/DX2                !
 ! R5    R(2,7)                  0.9904         estimate D2E/DX2                !
 ! R6    R(3,6)                  0.9905         estimate D2E/DX2                !
 ! R7    R(4,5)                  0.9904         estimate D2E/DX2                !
 ! A1    A(2,1,3)              111.3059         estimate D2E/DX2                !
 ! A2    A(2,1,4)              111.2064         estimate D2E/DX2                !
 ! A3    A(2,1,8)              107.6957         estimate D2E/DX2                !
 ! A4    A(3,1,4)              111.3317         estimate D2E/DX2                !
 ! A5    A(3,1,8)              107.5493         estimate D2E/DX2                !
 ! A6    A(4,1,8)              107.5374         estimate D2E/DX2                !
 ! A7    A(1,2,7)              104.9685         estimate D2E/DX2                !
 ! A8    A(1,3,6)              104.7654         estimate D2E/DX2                !
 ! A9    A(1,4,5)              104.8104         estimate D2E/DX2                !
 ! D1    D(3,1,2,7)            -77.1022         estimate D2E/DX2                !
 ! D2    D(4,1,2,7)            158.1382         estimate D2E/DX2                !
 ! D3    D(8,1,2,7)             40.5532         estimate D2E/DX2                !
 ! D4    D(2,1,3,6)            173.5634         estimate D2E/DX2                !
 ! D5    D(4,1,3,6)            -61.7473         estimate D2E/DX2                !
 ! D6    D(8,1,3,6)             55.8194         estimate D2E/DX2                !
 ! D7    D(2,1,4,5)            -66.8106         estimate D2E/DX2                !
 ! D8    D(3,1,4,5)            168.4443         estimate D2E/DX2                !
 ! D9    D(8,1,4,5)             50.8704         estimate D2E/DX2                !
 --------------------------------------------------------------------------------
 Trust Radius=3.00D-01 FncErr=1.00D-07 GrdErr=1.00D-06 EigMax=2.50D+02 EigMin=1.00D-04
 Number of steps in this run=     35 maximum allowed number of steps=    100.
 GradGradGradGradGradGradGradGradGradGradGradGradGradGradGradGradGradGrad

                          Input orientation:                          
 ---------------------------------------------------------------------
 Center     Atomic      Atomic             Coordinates (Angstroms)
 Number     Number       Type             X           Y           Z
 ---------------------------------------------------------------------
      1         15           0        0.627880   -0.477140    0.669290
      2          8           0        2.245860   -0.494780    0.037890
      3          8           0       -0.538320   -0.219390   -0.590910
      4          8           0        0.460430    0.699560    1.935180
      5          1           0        1.024230    0.358110    2.674430
      6          1           0       -1.417220   -0.332700   -0.148530
      7          1           0        2.346370   -1.385490   -0.383380
      8          8           0        0.347450   -1.873700    1.288390
 ---------------------------------------------------------------------
                    Distance matrix (angstroms):
                    1          2          3          4          5
     1  P    0.000000
     2  O    1.736904   0.000000
     3  O    1.736249   2.867558   0.000000
     4  O    1.736416   2.865993   2.867595   0.000000
     5  H    2.208013   3.028390   3.665721   0.990429   0.000000
     6  H    2.207289   3.671400   0.990457   2.988809   3.795655
     7  H    2.210525   0.990422   3.118380   3.644163   3.760106
     8  O    1.553160   2.658784   2.655767   2.655705   2.712953
                    6          7          8
     6  H    0.000000
     7  H    3.915116   0.000000
     8  O    2.748360   2.651197   0.000000
 Stoichiometry    H3O4P
 Framework group  C1[X(H3O4P)]
 Deg. of freedom    18
 Full point group                 C1      NOp   1
 Largest Abelian subgroup         C1      NOp   1
 Largest concise Abelian subgroup C1      NOp   1
                         Standard orientation:                         
 ---------------------------------------------------------------------
 Center     Atomic      Atomic             Coordinates (Angstroms)
 Number     Number       Type             X           Y           Z
 ---------------------------------------------------------------------
      1         15           0       -0.001194   -0.003436    0.003911
      2          8           0        1.548240   -0.553200   -0.556313
      3          8           0       -1.271209   -1.073498   -0.502636
      4          8           0       -0.309921    1.628173   -0.503710
      5          1           0        0.353323    2.175867   -0.012704
      6          1           0       -2.083360   -0.734166   -0.048467
      7          1           0        1.789621   -1.298548    0.049596
      8          8           0        0.027681   -0.012925    1.556773
 ---------------------------------------------------------------------
 Rotational constants (GHZ):           4.0572191           4.0338506           3.4564761
 Standard basis: CC-pVDZ (5D, 7F)
 There are    94 symmetry adapted cartesian basis functions of A   symmetry.
 There are    89 symmetry adapted basis functions of A   symmetry.
    89 basis functions,   224 primitive gaussians,    94 cartesian basis functions
    25 alpha electrons       25 beta electrons
       nuclear repulsion energy       260.6294002293 Hartrees.
 NAtoms=    8 NActive=    8 NUniq=    8 SFac= 1.00D+00 NAtFMM=   60 NAOKFM=F Big=F
 Integral buffers will be    131072 words long.
 Raffenetti 2 integral format.
 Two-electron integral symmetry is turned on.
 Nuclear repulsion after empirical dispersion term =      260.6247440856 Hartrees.
 One-electron integrals computed using PRISM.
 NBasis=    89 RedAO= T EigKep=  1.95D-02  NBF=    89
 NBsUse=    89 1.00D-06 EigRej= -1.00D+00 NBFU=    89
 ExpMin= 1.19D-01 ExpMax= 9.48D+04 ExpMxC= 3.24D+03 IAcc=3 IRadAn=         5 AccDes= 0.00D+00
 Harris functional with IExCor= 1009 and IRadAn=       5 diagonalized for initial guess.
 HarFok:  IExCor= 1009 AccDes= 0.00D+00 IRadAn=         5 IDoV= 1 UseB2=F ITyADJ=14
 ICtDFT=  3500011 ScaDFX=  1.000000  1.000000  1.000000  1.000000
 FoFCou: FMM=F IPFlag=           0 FMFlag=      100000 FMFlg1=           0
         NFxFlg=           0 DoJE=T BraDBF=F KetDBF=T FulRan=T
         wScrn=  0.000000 ICntrl=       500 IOpCl=  0 I1Cent=   200000004 NGrid=           0
         NMat0=    1 NMatS0=      1 NMatT0=    0 NMatD0=    1 NMtDS0=    0 NMtDT0=    0
 Petite list used in FoFCou.
 Keep R1 ints in memory in canonical form, NReq=22696891.
 Requested convergence on RMS density matrix=1.00D-08 within 128 cycles.
 Requested convergence on MAX density matrix=1.00D-06.
 Requested convergence on             energy=1.00D-06.
 No special actions if energy rises.
 Integral accuracy reduced to 1.0D-05 until final iterations.
 Initial convergence to 1.0D-05 achieved.  Increase integral accuracy.
 SCF Done:  E(RPBE1PBE) =  -643.664943780     A.U. after   13 cycles
            NFock= 13  Conv=0.79D-08     -V/T= 2.0047

 **********************************************************************

            Population analysis using the SCF density.

 **********************************************************************

 Orbital symmetries:
       Occupied  (A) (A) (A) (A) (A) (A) (A) (A) (A) (A) (A) (A)
                 (A) (A) (A) (A) (A) (A) (A) (A) (A) (A) (A) (A)
                 (A)
       Virtual   (A) (A) (A) (A) (A) (A) (A) (A) (A) (A) (A) (A)
                 (A) (A) (A) (A) (A) (A) (A) (A) (A) (A) (A) (A)
                 (A) (A) (A) (A) (A) (A) (A) (A) (A) (A) (A) (A)
                 (A) (A) (A) (A) (A) (A) (A) (A) (A) (A) (A) (A)
                 (A) (A) (A) (A) (A) (A) (A) (A) (A) (A) (A) (A)
                 (A) (A) (A) (A)
 The electronic state is 1-A.
 Alpha  occ. eigenvalues --  -77.41975 -19.27846 -19.27807 -19.27691 -19.17363
 Alpha  occ. eigenvalues --   -6.77855  -4.91590  -4.91582  -4.91432  -1.09893
 Alpha  occ. eigenvalues --   -1.05930  -1.05852  -0.96009  -0.65701  -0.55865
 Alpha  occ. eigenvalues --   -0.55427  -0.48263  -0.44978  -0.44751  -0.39701
 Alpha  occ. eigenvalues --   -0.38270  -0.37995  -0.35240  -0.28755  -0.28635
 Alpha virt. eigenvalues --   -0.04489   0.05836   0.05920   0.07714   0.11557
 Alpha virt. eigenvalues --    0.12036   0.13034   0.41291   0.42872   0.43252
 Alpha virt. eigenvalues --    0.45692   0.47758   0.48520   0.56850   0.59300
 Alpha virt. eigenvalues --    0.59681   0.71669   0.71842   0.78653   0.93427
 Alpha virt. eigenvalues --    0.94327   0.98577   1.00793   1.01068   1.02154
 Alpha virt. eigenvalues --    1.05645   1.06064   1.11421   1.15832   1.17368
 Alpha virt. eigenvalues --    1.20761   1.30067   1.30226   1.30936   1.36022
 Alpha virt. eigenvalues --    1.45908   1.46931   1.83911   1.84359   1.85606
 Alpha virt. eigenvalues --    2.01126   2.03483   2.03677   2.09564   2.59219
 Alpha virt. eigenvalues --    2.60002   2.61212   2.66525   2.66812   2.77613
 Alpha virt. eigenvalues --    2.81005   2.82149   2.84819   2.86032   2.86086
 Alpha virt. eigenvalues --    2.86688   2.91507   2.92551   3.00317   3.00732
 Alpha virt. eigenvalues --    3.24401   3.56835   3.57295   3.60488
          Condensed to atoms (all electrons):
               1          2          3          4          5          6
     1  P   12.498925   0.328786   0.328015   0.326850  -0.016683  -0.016812
     2  O    0.328786   7.741292  -0.009240  -0.009658   0.000124   0.000618
     3  O    0.328015  -0.009240   7.733091  -0.009563   0.000651   0.337616
     4  O    0.326850  -0.009658  -0.009563   7.740317   0.338055   0.000136
     5  H   -0.016683   0.000124   0.000651   0.338055   0.459772  -0.000196
     6  H   -0.016812   0.000618   0.337616   0.000136  -0.000196   0.461833
     7  H   -0.017206   0.337588   0.000104   0.000650  -0.000239  -0.000150
     8  O    0.606718  -0.025497  -0.025449  -0.025423   0.003843   0.003223
               7          8
     1  P   -0.017206   0.606718
     2  O    0.337588  -0.025497
     3  O    0.000104  -0.025449
     4  O    0.000650  -0.025423
     5  H   -0.000239   0.003843
     6  H   -0.000150   0.003223
     7  H    0.458892   0.005184
     8  O    0.005184   7.981790
 Mulliken charges:
               1
     1  P    0.961406
     2  O   -0.364012
     3  O   -0.355225
     4  O   -0.361363
     5  H    0.214673
     6  H    0.213733
     7  H    0.215177
     8  O   -0.524389
 Sum of Mulliken charges =  -0.00000
 Mulliken charges with hydrogens summed into heavy atoms:
               1
     1  P    0.961406
     2  O   -0.148835
     3  O   -0.141492
     4  O   -0.146690
     8  O   -0.524389
 Electronic spatial extent (au):  <R**2>=            455.6374
 Charge=              0.0000 electrons
 Dipole moment (field-independent basis, Debye):
    X=              0.0513    Y=              0.2364    Z=             -0.9289  Tot=              0.9599
 Quadrupole moment (field-independent basis, Debye-Ang):
   XX=            -29.0642   YY=            -30.4504   ZZ=            -42.7374
   XY=             -0.0718   XZ=              0.4415   YZ=             -0.1128
 Traceless Quadrupole moment (field-independent basis, Debye-Ang):
   XX=              5.0198   YY=              3.6336   ZZ=             -8.6534
   XY=             -0.0718   XZ=              0.4415   YZ=             -0.1128
 Octapole moment (field-independent basis, Debye-Ang**2):
  XXX=            -11.5160  YYY=              8.4631  ZZZ=             -9.3645  XYY=             12.3620
  XXY=             -7.1478  XXZ=              5.5886  XZZ=             -0.3111  YZZ=              0.1702
  YYZ=              5.3813  XYZ=             -0.5682
 Hexadecapole moment (field-independent basis, Debye-Ang**3):
 XXXX=           -143.4058 YYYY=           -149.2753 ZZZZ=           -153.1014 XXXY=             -1.9571
 XXXZ=              3.6043 YYYX=              1.4816 YYYZ=              3.8262 ZZZX=             -0.0697
 ZZZY=             -0.0132 XXYY=            -50.5392 XXZZ=            -58.0015 YYZZ=            -57.5335
 XXYZ=             -4.5525 YYXZ=             -0.9118 ZZXY=              0.0847
 N-N= 2.606247440856D+02 E-N=-2.047107402026D+03  KE= 6.406285125947D+02
 Calling FoFJK, ICntrl=      2127 FMM=F ISym2X=0 I1Cent= 0 IOpClX= 0 NMat=1 NMatS=1 NMatT=0.
 ***** Axes restored to original set *****
 -------------------------------------------------------------------
 Center     Atomic                   Forces (Hartrees/Bohr)
 Number     Number              X              Y              Z
 -------------------------------------------------------------------
      1       15          -0.014073908   -0.076580028    0.033314796
      2        8          -0.049135441    0.013865051    0.003677129
      3        8           0.032742039    0.016343082    0.039648896
      4        8           0.019295082   -0.018985875   -0.044673786
      5        1          -0.010041653    0.001161737   -0.015042710
      6        1           0.017152648   -0.000495018   -0.004485399
      7        1          -0.007399946    0.013473786    0.010514194
      8        8           0.011461180    0.051217265   -0.022953120
 -------------------------------------------------------------------
 Cartesian Forces:  Max     0.076580028 RMS     0.028652730

 GradGradGradGradGradGradGradGradGradGradGradGradGradGradGradGradGradGrad
 Berny optimization.
 FormGI is forming the generalized inverse of G from B-inverse, IUseBI=4.
 Internal  Forces:  Max     0.058101092 RMS     0.027057941
 Search for a local minimum.
 Step number   1 out of a maximum of   35
 All quantities printed in internal units (Hartrees-Bohrs-Radians)
 Mixed Optimization -- RFO/linear search
 Second derivative matrix not updated -- first step.
 ITU=  0
     Eigenvalues ---    0.01602   0.01608   0.01611   0.09947   0.13753
     Eigenvalues ---    0.13777   0.16000   0.16000   0.16000   0.22388
     Eigenvalues ---    0.22401   0.31791   0.31841   0.31858   0.49406
     Eigenvalues ---    0.49411   0.49413   0.61458
 RFO step:  Lambda=-5.92946236D-02 EMin= 1.60191259D-02
 Linear search not attempted -- first point.
 Maximum step size (   0.300) exceeded in Quadratic search.
    -- Step size scaled by   0.793
 Iteration  1 RMS(Cart)=  0.10387227 RMS(Int)=  0.00562151
 Iteration  2 RMS(Cart)=  0.00423296 RMS(Int)=  0.00396394
 Iteration  3 RMS(Cart)=  0.00001304 RMS(Int)=  0.00396393
 Iteration  4 RMS(Cart)=  0.00000010 RMS(Int)=  0.00396393
 Variable       Old X    -DE/DX   Delta X   Delta X   Delta X     New X
                                 (Linear)    (Quad)   (Total)
    R1        3.28227  -0.05810   0.00000  -0.12216  -0.12216   3.16011
    R2        3.28104  -0.05668   0.00000  -0.11897  -0.11897   3.16207
    R3        3.28135  -0.05651   0.00000  -0.11865  -0.11865   3.16270
    R4        2.93505  -0.05727   0.00000  -0.06741  -0.06741   2.86764
    R5        1.87163  -0.01734   0.00000  -0.02485  -0.02485   1.84678
    R6        1.87169  -0.01717   0.00000  -0.02461  -0.02461   1.84709
    R7        1.87164  -0.01734   0.00000  -0.02486  -0.02486   1.84678
    A1        1.94265  -0.01479   0.00000  -0.07429  -0.08306   1.85960
    A2        1.94092  -0.01370   0.00000  -0.07127  -0.08017   1.86075
    A3        1.87964   0.01452   0.00000   0.07510   0.07674   1.95639
    A4        1.94310  -0.01616   0.00000  -0.07751  -0.08616   1.85694
    A5        1.87709   0.01707   0.00000   0.08340   0.08516   1.96225
    A6        1.87688   0.01655   0.00000   0.08196   0.08363   1.96052
    A7        1.83205  -0.01235   0.00000  -0.04466  -0.04466   1.78739
    A8        1.82850  -0.00767   0.00000  -0.02775  -0.02775   1.80076
    A9        1.82929  -0.00925   0.00000  -0.03345  -0.03345   1.79584
    D1       -1.34569  -0.02213   0.00000  -0.11505  -0.11013  -1.45582
    D2        2.76003   0.02015   0.00000   0.09435   0.08946   2.84950
    D3        0.70779  -0.00096   0.00000  -0.01022  -0.01026   0.69752
    D4        3.02925   0.01914   0.00000   0.09091   0.08572   3.11497
    D5       -1.07769  -0.02181   0.00000  -0.11525  -0.11004  -1.18773
    D6        0.97423  -0.00049   0.00000  -0.00893  -0.00895   0.96528
    D7       -1.16607  -0.02155   0.00000  -0.11408  -0.10905  -1.27512
    D8        2.93991   0.01997   0.00000   0.09356   0.08847   3.02838
    D9        0.88786  -0.00167   0.00000  -0.01363  -0.01357   0.87428
         Item               Value     Threshold  Converged?
 Maximum Force            0.058101     0.000450     NO 
 RMS     Force            0.027058     0.000300     NO 
 Maximum Displacement     0.195325     0.001800     NO 
 RMS     Displacement     0.106456     0.001200     NO 
 Predicted change in Energy=-3.224970D-02
 GradGradGradGradGradGradGradGradGradGradGradGradGradGradGradGradGradGrad

                          Input orientation:                          
 ---------------------------------------------------------------------
 Center     Atomic      Atomic             Coordinates (Angstroms)
 Number     Number       Type             X           Y           Z
 ---------------------------------------------------------------------
      1         15           0        0.612154   -0.561320    0.706624
      2          8           0        2.153234   -0.445680    0.067757
      3          8           0       -0.447354   -0.193184   -0.535081
      4          8           0        0.467046    0.669092    1.831819
      5          1           0        1.019226    0.352635    2.573451
      6          1           0       -1.324931   -0.299452   -0.118011
      7          1           0        2.272051   -1.319445   -0.353521
      8          8           0        0.345254   -1.928176    1.309324
 ---------------------------------------------------------------------
                    Distance matrix (angstroms):
                    1          2          3          4          5
     1  P    0.000000
     2  O    1.672259   0.000000
     3  O    1.673294   2.681459   0.000000
     4  O    1.673629   2.682883   2.679900   0.000000
     5  H    2.118033   2.863875   3.480193   0.977275   0.000000
     6  H    2.121532   3.486190   0.977436   2.819768   3.628258
     7  H    2.110431   0.977272   2.948998   3.462374   3.596191
     8  O    1.517491   2.647277   2.653348   2.652101   2.693392
                    6          7          8
     6  H    0.000000
     7  H    3.746215   0.000000
     8  O    2.734876   2.616898   0.000000
 Stoichiometry    H3O4P
 Framework group  C1[X(H3O4P)]
 Deg. of freedom    18
 Full point group                 C1      NOp   1
 Largest Abelian subgroup         C1      NOp   1
 Largest concise Abelian subgroup C1      NOp   1
                         Standard orientation:                         
 ---------------------------------------------------------------------
 Center     Atomic      Atomic             Coordinates (Angstroms)
 Number     Number       Type             X           Y           Z
 ---------------------------------------------------------------------
      1         15           0        0.002889   -0.004080    0.069747
      2          8           0        1.470543   -0.360338   -0.648253
      3          8           0       -1.098730   -1.117033   -0.519900
      4          8           0       -0.469954    1.488057   -0.522690
      5          1           0        0.135024    2.105420   -0.066696
      6          1           0       -1.924794   -0.881424   -0.053546
      7          1           0        1.816424   -1.073477   -0.076537
      8          8           0        0.089391   -0.021851    1.584666
 ---------------------------------------------------------------------
 Rotational constants (GHZ):           4.2250578           4.1981507           3.9326461
 Standard basis: CC-pVDZ (5D, 7F)
 There are    94 symmetry adapted cartesian basis functions of A   symmetry.
 There are    89 symmetry adapted basis functions of A   symmetry.
    89 basis functions,   224 primitive gaussians,    94 cartesian basis functions
    25 alpha electrons       25 beta electrons
       nuclear repulsion energy       269.4156019155 Hartrees.
 NAtoms=    8 NActive=    8 NUniq=    8 SFac= 1.00D+00 NAtFMM=   60 NAOKFM=F Big=F
 Integral buffers will be    131072 words long.
 Raffenetti 2 integral format.
 Two-electron integral symmetry is turned on.
 Nuclear repulsion after empirical dispersion term =      269.4108457374 Hartrees.
 One-electron integrals computed using PRISM.
 NBasis=    89 RedAO= T EigKep=  1.75D-02  NBF=    89
 NBsUse=    89 1.00D-06 EigRej= -1.00D+00 NBFU=    89
 Initial guess from the checkpoint file:  "/scratch/js1212.15167/H3PO4-GPOF.chk"
 B after Tr=    -0.000000    0.000000   -0.000000
         Rot=    0.998535   -0.004339   -0.017034   -0.051180 Ang=  -6.20 deg.
 ExpMin= 1.19D-01 ExpMax= 9.48D+04 ExpMxC= 3.24D+03 IAcc=2 IRadAn=         4 AccDes= 0.00D+00
 Harris functional with IExCor= 1009 and IRadAn=       4 diagonalized for initial guess.
 HarFok:  IExCor= 1009 AccDes= 0.00D+00 IRadAn=         4 IDoV= 1 UseB2=F ITyADJ=14
 ICtDFT=  3500011 ScaDFX=  1.000000  1.000000  1.000000  1.000000
 FoFCou: FMM=F IPFlag=           0 FMFlag=      100000 FMFlg1=           0
         NFxFlg=           0 DoJE=T BraDBF=F KetDBF=T FulRan=T
         wScrn=  0.000000 ICntrl=       500 IOpCl=  0 I1Cent=   200000004 NGrid=           0
         NMat0=    1 NMatS0=      1 NMatT0=    0 NMatD0=    1 NMtDS0=    0 NMtDT0=    0
 Petite list used in FoFCou.
 Keep R1 ints in memory in canonical form, NReq=22696891.
 Requested convergence on RMS density matrix=1.00D-08 within 128 cycles.
 Requested convergence on MAX density matrix=1.00D-06.
 Requested convergence on             energy=1.00D-06.
 No special actions if energy rises.
 Integral accuracy reduced to 1.0D-05 until final iterations.
 Initial convergence to 1.0D-05 achieved.  Increase integral accuracy.
 SCF Done:  E(RPBE1PBE) =  -643.701106950     A.U. after   12 cycles
            NFock= 12  Conv=0.67D-08     -V/T= 2.0041
 Calling FoFJK, ICntrl=      2127 FMM=F ISym2X=0 I1Cent= 0 IOpClX= 0 NMat=1 NMatS=1 NMatT=0.
 ***** Axes restored to original set *****
 -------------------------------------------------------------------
 Center     Atomic                   Forces (Hartrees/Bohr)
 Number     Number              X              Y              Z
 -------------------------------------------------------------------
      1       15          -0.006314383   -0.027848149    0.011648634
      2        8          -0.032557878    0.004021760    0.002957126
      3        8           0.019911127    0.007081499    0.028003009
      4        8           0.012335665   -0.016128997   -0.026903154
      5        1          -0.005483209    0.003343811   -0.001586359
      6        1           0.003451441   -0.000649410   -0.005812961
      7        1           0.002731567    0.004602335    0.003076224
      8        8           0.005925669    0.025577151   -0.011382519
 -------------------------------------------------------------------
 Cartesian Forces:  Max     0.032557878 RMS     0.014930029

 GradGradGradGradGradGradGradGradGradGradGradGradGradGradGradGradGradGrad
 Berny optimization.
 Using GEDIIS/GDIIS optimizer.
 FormGI is forming the generalized inverse of G from B-inverse, IUseBI=4.
 Internal  Forces:  Max     0.029844341 RMS     0.013902203
 Search for a local minimum.
 Step number   2 out of a maximum of   35
 All quantities printed in internal units (Hartrees-Bohrs-Radians)
 Mixed Optimization -- RFO/linear search
 Update second derivatives using D2CorX and points    1    2
 DE= -3.62D-02 DEPred=-3.22D-02 R= 1.12D+00
 TightC=F SS=  1.41D+00  RLast= 3.92D-01 DXNew= 5.0454D-01 1.1772D+00
 Trust test= 1.12D+00 RLast= 3.92D-01 DXMaxT set to 5.05D-01
 ITU=  1  0
 Use linear search instead of GDIIS.
     Eigenvalues ---    0.01599   0.01606   0.01610   0.09747   0.12853
     Eigenvalues ---    0.12870   0.15997   0.16000   0.18387   0.21589
     Eigenvalues ---    0.21613   0.27906   0.31819   0.31856   0.49407
     Eigenvalues ---    0.49412   0.49790   0.59587
 RFO step:  Lambda=-6.52333348D-03 EMin= 1.59857732D-02
 Quartic linear search produced a step of  0.67438.
 Iteration  1 RMS(Cart)=  0.08213688 RMS(Int)=  0.00913667
 Iteration  2 RMS(Cart)=  0.00686629 RMS(Int)=  0.00546169
 Iteration  3 RMS(Cart)=  0.00003619 RMS(Int)=  0.00546153
 Iteration  4 RMS(Cart)=  0.00000012 RMS(Int)=  0.00546153
 Variable       Old X    -DE/DX   Delta X   Delta X   Delta X     New X
                                 (Linear)    (Quad)   (Total)
    R1        3.16011  -0.02920  -0.08238  -0.03181  -0.11419   3.04592
    R2        3.16207  -0.02984  -0.08023  -0.03802  -0.11824   3.04382
    R3        3.16270  -0.02915  -0.08001  -0.03480  -0.11481   3.04789
    R4        2.86764  -0.02860  -0.04546  -0.02098  -0.06644   2.80121
    R5        1.84678  -0.00511  -0.01676   0.00451  -0.01224   1.83453
    R6        1.84709  -0.00551  -0.01659   0.00296  -0.01363   1.83346
    R7        1.84678  -0.00538  -0.01676   0.00360  -0.01316   1.83362
    A1        1.85960  -0.01007  -0.05601  -0.01447  -0.08150   1.77810
    A2        1.86075  -0.00905  -0.05406  -0.00991  -0.07529   1.78546
    A3        1.95639   0.00803   0.05175   0.00929   0.06284   2.01923
    A4        1.85694  -0.01142  -0.05810  -0.02047  -0.08929   1.76765
    A5        1.96225   0.01019   0.05743   0.01703   0.07648   2.03873
    A6        1.96052   0.00960   0.05640   0.01455   0.07284   2.03335
    A7        1.78739   0.00522  -0.03012   0.10825   0.07813   1.86552
    A8        1.80076   0.00615  -0.01871   0.09647   0.07776   1.87852
    A9        1.79584   0.00581  -0.02256   0.10024   0.07769   1.87353
    D1       -1.45582  -0.01203  -0.07427  -0.05615  -0.12290  -1.57872
    D2        2.84950   0.00961   0.06033  -0.02183   0.03106   2.88056
    D3        0.69752  -0.00120  -0.00692  -0.03901  -0.04600   0.65152
    D4        3.11497   0.00852   0.05781  -0.02875   0.02086   3.13583
    D5       -1.18773  -0.01146  -0.07421  -0.05577  -0.12175  -1.30948
    D6        0.96528  -0.00096  -0.00603  -0.04105  -0.04712   0.91816
    D7       -1.27512  -0.01149  -0.07354  -0.05685  -0.12258  -1.39770
    D8        3.02838   0.00920   0.05966  -0.02667   0.02506   3.05344
    D9        0.87428  -0.00167  -0.00915  -0.04295  -0.05197   0.82231
         Item               Value     Threshold  Converged?
 Maximum Force            0.029844     0.000450     NO 
 RMS     Force            0.013902     0.000300     NO 
 Maximum Displacement     0.193218     0.001800     NO 
 RMS     Displacement     0.085813     0.001200     NO 
 Predicted change in Energy=-1.508572D-02
 GradGradGradGradGradGradGradGradGradGradGradGradGradGradGradGradGradGrad

                          Input orientation:                          
 ---------------------------------------------------------------------
 Center     Atomic      Atomic             Coordinates (Angstroms)
 Number     Number       Type             X           Y           Z
 ---------------------------------------------------------------------
      1         15           0        0.597044   -0.636646    0.739615
      2          8           0        2.050987   -0.432200    0.074595
      3          8           0       -0.381021   -0.166642   -0.450725
      4          8           0        0.498682    0.621441    1.744055
      5          1           0        1.000470    0.393858    2.542750
      6          1           0       -1.293829   -0.262479   -0.136193
      7          1           0        2.283226   -1.269408   -0.358517
      8          8           0        0.341121   -1.973454    1.326780
 ---------------------------------------------------------------------
                    Distance matrix (angstroms):
                    1          2          3          4          5
     1  P    0.000000
     2  O    1.611831   0.000000
     3  O    1.610722   2.502228   0.000000
     4  O    1.612873   2.511356   2.492391   0.000000
     5  H    2.115653   2.806733   3.344185   0.970308   0.000000
     6  H    2.117178   3.355746   0.970223   2.744037   3.587662
     7  H    2.109382   0.970792   2.884928   3.343758   3.581797
     8  O    1.482334   2.620510   2.635448   2.632950   2.741805
                    6          7          8
     6  H    0.000000
     7  H    3.722722   0.000000
     8  O    2.782227   2.666023   0.000000
 Stoichiometry    H3O4P
 Framework group  C1[X(H3O4P)]
 Deg. of freedom    18
 Full point group                 C1      NOp   1
 Largest Abelian subgroup         C1      NOp   1
 Largest concise Abelian subgroup C1      NOp   1
                         Standard orientation:                         
 ---------------------------------------------------------------------
 Center     Atomic      Atomic             Coordinates (Angstroms)
 Number     Number       Type             X           Y           Z
 ---------------------------------------------------------------------
      1         15           0        0.024439   -0.001439    0.119571
      2          8           0        1.294662   -0.086089   -0.869048
      3          8           0       -0.887042   -1.220760   -0.406626
      4          8           0       -0.780648    1.268711   -0.463449
      5          1           0       -0.344982    2.067222   -0.125701
      6          1           0       -1.685465   -1.249669    0.143845
      7          1           0        1.944376   -0.668965   -0.444118
      8          8           0        0.337963    0.022262    1.568175
 ---------------------------------------------------------------------
 Rotational constants (GHZ):           4.4746940           4.3922872           4.3574213
 Standard basis: CC-pVDZ (5D, 7F)
 There are    94 symmetry adapted cartesian basis functions of A   symmetry.
 There are    89 symmetry adapted basis functions of A   symmetry.
    89 basis functions,   224 primitive gaussians,    94 cartesian basis functions
    25 alpha electrons       25 beta electrons
       nuclear repulsion energy       278.0317696044 Hartrees.
 NAtoms=    8 NActive=    8 NUniq=    8 SFac= 1.00D+00 NAtFMM=   60 NAOKFM=F Big=F
 Integral buffers will be    131072 words long.
 Raffenetti 2 integral format.
 Two-electron integral symmetry is turned on.
 Nuclear repulsion after empirical dispersion term =      278.0269624936 Hartrees.
 One-electron integrals computed using PRISM.
 NBasis=    89 RedAO= T EigKep=  1.50D-02  NBF=    89
 NBsUse=    89 1.00D-06 EigRej= -1.00D+00 NBFU=    89
 Initial guess from the checkpoint file:  "/scratch/js1212.15167/H3PO4-GPOF.chk"
 B after Tr=     0.000000   -0.000000   -0.000000
         Rot=    0.992382    0.000758   -0.075775   -0.097132 Ang=  14.15 deg.
 ExpMin= 1.19D-01 ExpMax= 9.48D+04 ExpMxC= 3.24D+03 IAcc=2 IRadAn=         4 AccDes= 0.00D+00
 Harris functional with IExCor= 1009 and IRadAn=       4 diagonalized for initial guess.
 HarFok:  IExCor= 1009 AccDes= 0.00D+00 IRadAn=         4 IDoV= 1 UseB2=F ITyADJ=14
 ICtDFT=  3500011 ScaDFX=  1.000000  1.000000  1.000000  1.000000
 FoFCou: FMM=F IPFlag=           0 FMFlag=      100000 FMFlg1=           0
         NFxFlg=           0 DoJE=T BraDBF=F KetDBF=T FulRan=T
         wScrn=  0.000000 ICntrl=       500 IOpCl=  0 I1Cent=   200000004 NGrid=           0
         NMat0=    1 NMatS0=      1 NMatT0=    0 NMatD0=    1 NMtDS0=    0 NMtDT0=    0
 Petite list used in FoFCou.
 Keep R1 ints in memory in canonical form, NReq=22696891.
 Requested convergence on RMS density matrix=1.00D-08 within 128 cycles.
 Requested convergence on MAX density matrix=1.00D-06.
 Requested convergence on             energy=1.00D-06.
 No special actions if energy rises.
 Integral accuracy reduced to 1.0D-05 until final iterations.
 Initial convergence to 1.0D-05 achieved.  Increase integral accuracy.
 SCF Done:  E(RPBE1PBE) =  -643.712863404     A.U. after   12 cycles
            NFock= 12  Conv=0.73D-08     -V/T= 2.0034
 Calling FoFJK, ICntrl=      2127 FMM=F ISym2X=0 I1Cent= 0 IOpClX= 0 NMat=1 NMatS=1 NMatT=0.
 ***** Axes restored to original set *****
 -------------------------------------------------------------------
 Center     Atomic                   Forces (Hartrees/Bohr)
 Number     Number              X              Y              Z
 -------------------------------------------------------------------
      1       15          -0.000688395   -0.002641248    0.000993749
      2        8           0.005243673   -0.001670945   -0.006188995
      3        8          -0.006935371    0.004002139   -0.002518324
      4        8           0.003765453    0.004645889    0.005478633
      5        1          -0.002526791    0.002104629    0.000969746
      6        1           0.000048990   -0.000579035   -0.003342096
      7        1           0.002486105    0.001860164    0.001001850
      8        8          -0.001393665   -0.007721593    0.003605437
 -------------------------------------------------------------------
 Cartesian Forces:  Max     0.007721593 RMS     0.003661382

 GradGradGradGradGradGradGradGradGradGradGradGradGradGradGradGradGradGrad
 Berny optimization.
 Using GEDIIS/GDIIS optimizer.
 FormGI is forming the generalized inverse of G from B-inverse, IUseBI=4.
 Internal  Forces:  Max     0.009511415 RMS     0.004110512
 Search for a local minimum.
 Step number   3 out of a maximum of   35
 All quantities printed in internal units (Hartrees-Bohrs-Radians)
 Mixed Optimization -- RFO/linear search
 Update second derivatives using D2CorX and points    2    3
 DE= -1.18D-02 DEPred=-1.51D-02 R= 7.79D-01
 TightC=F SS=  1.41D+00  RLast= 3.91D-01 DXNew= 8.4853D-01 1.1724D+00
 Trust test= 7.79D-01 RLast= 3.91D-01 DXMaxT set to 8.49D-01
 ITU=  1  1  0
 Use linear search instead of GDIIS.
     Eigenvalues ---    0.01594   0.01604   0.01610   0.12024   0.12061
     Eigenvalues ---    0.12118   0.15999   0.16001   0.17949   0.20929
     Eigenvalues ---    0.21070   0.31815   0.31853   0.37447   0.49407
     Eigenvalues ---    0.49413   0.49808   0.61560
 RFO step:  Lambda=-1.51592000D-03 EMin= 1.59384728D-02
 Quartic linear search produced a step of -0.05777.
 Iteration  1 RMS(Cart)=  0.02745045 RMS(Int)=  0.00085120
 Iteration  2 RMS(Cart)=  0.00091057 RMS(Int)=  0.00012978
 Iteration  3 RMS(Cart)=  0.00000112 RMS(Int)=  0.00012978
 Iteration  4 RMS(Cart)=  0.00000000 RMS(Int)=  0.00012978
 Variable       Old X    -DE/DX   Delta X   Delta X   Delta X     New X
                                 (Linear)    (Quad)   (Total)
    R1        3.04592   0.00914   0.00660   0.01325   0.01985   3.06577
    R2        3.04382   0.00951   0.00683   0.01443   0.02126   3.06508
    R3        3.04789   0.00921   0.00663   0.01368   0.02031   3.06820
    R4        2.80121   0.00863   0.00384   0.00627   0.01010   2.81131
    R5        1.83453  -0.00146   0.00071  -0.00499  -0.00428   1.83025
    R6        1.83346  -0.00107   0.00079  -0.00428  -0.00350   1.82996
    R7        1.83362  -0.00100   0.00076  -0.00416  -0.00340   1.83022
    A1        1.77810  -0.00085   0.00471  -0.01558  -0.01061   1.76749
    A2        1.78546  -0.00041   0.00435  -0.01304  -0.00842   1.77704
    A3        2.01923   0.00046  -0.00363   0.01055   0.00688   2.02611
    A4        1.76765  -0.00032   0.00516  -0.01339  -0.00800   1.75966
    A5        2.03873   0.00060  -0.00442   0.01286   0.00839   2.04712
    A6        2.03335   0.00024  -0.00421   0.01107   0.00681   2.04016
    A7        1.86552   0.00477  -0.00451   0.02632   0.02180   1.88733
    A8        1.87852   0.00499  -0.00449   0.02924   0.02475   1.90327
    A9        1.87353   0.00518  -0.00449   0.02978   0.02529   1.89882
    D1       -1.57872  -0.00114   0.00710  -0.06274  -0.05581  -1.63453
    D2        2.88056  -0.00045  -0.00179  -0.04062  -0.04225   2.83831
    D3        0.65152  -0.00074   0.00266  -0.05155  -0.04889   0.60263
    D4        3.13583  -0.00065  -0.00121  -0.05354  -0.05455   3.08128
    D5       -1.30948  -0.00139   0.00703  -0.07507  -0.06824  -1.37773
    D6        0.91816  -0.00095   0.00272  -0.06314  -0.06042   0.85775
    D7       -1.39770  -0.00148   0.00708  -0.07402  -0.06713  -1.46483
    D8        3.05344  -0.00038  -0.00145  -0.05036  -0.05161   3.00183
    D9        0.82231  -0.00105   0.00300  -0.06347  -0.06047   0.76183
         Item               Value     Threshold  Converged?
 Maximum Force            0.009511     0.000450     NO 
 RMS     Force            0.004111     0.000300     NO 
 Maximum Displacement     0.053847     0.001800     NO 
 RMS     Displacement     0.027513     0.001200     NO 
 Predicted change in Energy=-7.675030D-04
 GradGradGradGradGradGradGradGradGradGradGradGradGradGradGradGradGradGrad

                          Input orientation:                          
 ---------------------------------------------------------------------
 Center     Atomic      Atomic             Coordinates (Angstroms)
 Number     Number       Type             X           Y           Z
 ---------------------------------------------------------------------
      1         15           0        0.596463   -0.641834    0.742816
      2          8           0        2.048199   -0.436427    0.048382
      3          8           0       -0.394554   -0.147167   -0.442081
      4          8           0        0.526512    0.630062    1.749561
      5          1           0        0.986316    0.403280    2.571244
      6          1           0       -1.312234   -0.275750   -0.160878
      7          1           0        2.308401   -1.275185   -0.360060
      8          8           0        0.337578   -1.982510    1.333375
 ---------------------------------------------------------------------
                    Distance matrix (angstroms):
                    1          2          3          4          5
     1  P    0.000000
     2  O    1.622334   0.000000
     3  O    1.621971   2.508240   0.000000
     4  O    1.623622   2.519313   2.501148   0.000000
     5  H    2.141821   2.863134   3.360048   0.968511   0.000000
     6  H    2.143315   3.370773   0.968373   2.802010   3.634405
     7  H    2.132651   0.968528   2.930037   3.354937   3.627354
     8  O    1.487681   2.639660   2.656454   2.652252   2.764990
                    6          7          8
     6  H    0.000000
     7  H    3.761322   0.000000
     8  O    2.804942   2.692987   0.000000
 Stoichiometry    H3O4P
 Framework group  C1[X(H3O4P)]
 Deg. of freedom    18
 Full point group                 C1      NOp   1
 Largest Abelian subgroup         C1      NOp   1
 Largest concise Abelian subgroup C1      NOp   1
                         Standard orientation:                         
 ---------------------------------------------------------------------
 Center     Atomic      Atomic             Coordinates (Angstroms)
 Number     Number       Type             X           Y           Z
 ---------------------------------------------------------------------
      1         15           0        0.028073    0.002458    0.125645
      2          8           0        1.279670   -0.115829   -0.899772
      3          8           0       -0.900666   -1.233931   -0.363818
      4          8           0       -0.790070    1.261473   -0.492152
      5          1           0       -0.398714    2.082044   -0.158211
      6          1           0       -1.670262   -1.301593    0.220040
      7          1           0        1.968120   -0.648421   -0.475003
      8          8           0        0.371037    0.067175    1.571806
 ---------------------------------------------------------------------
 Rotational constants (GHZ):           4.4330888           4.3338086           4.2985785
 Standard basis: CC-pVDZ (5D, 7F)
 There are    94 symmetry adapted cartesian basis functions of A   symmetry.
 There are    89 symmetry adapted basis functions of A   symmetry.
    89 basis functions,   224 primitive gaussians,    94 cartesian basis functions
    25 alpha electrons       25 beta electrons
       nuclear repulsion energy       276.4246749954 Hartrees.
 NAtoms=    8 NActive=    8 NUniq=    8 SFac= 1.00D+00 NAtFMM=   60 NAOKFM=F Big=F
 Integral buffers will be    131072 words long.
 Raffenetti 2 integral format.
 Two-electron integral symmetry is turned on.
 Nuclear repulsion after empirical dispersion term =      276.4198877671 Hartrees.
 One-electron integrals computed using PRISM.
 NBasis=    89 RedAO= T EigKep=  1.53D-02  NBF=    89
 NBsUse=    89 1.00D-06 EigRej= -1.00D+00 NBFU=    89
 Initial guess from the checkpoint file:  "/scratch/js1212.15167/H3PO4-GPOF.chk"
 B after Tr=    -0.000000    0.000000    0.000000
         Rot=    0.999858    0.013634   -0.009791   -0.001321 Ang=   1.93 deg.
 ExpMin= 1.19D-01 ExpMax= 9.48D+04 ExpMxC= 3.24D+03 IAcc=2 IRadAn=         4 AccDes= 0.00D+00
 Harris functional with IExCor= 1009 and IRadAn=       4 diagonalized for initial guess.
 HarFok:  IExCor= 1009 AccDes= 0.00D+00 IRadAn=         4 IDoV= 1 UseB2=F ITyADJ=14
 ICtDFT=  3500011 ScaDFX=  1.000000  1.000000  1.000000  1.000000
 FoFCou: FMM=F IPFlag=           0 FMFlag=      100000 FMFlg1=           0
         NFxFlg=           0 DoJE=T BraDBF=F KetDBF=T FulRan=T
         wScrn=  0.000000 ICntrl=       500 IOpCl=  0 I1Cent=   200000004 NGrid=           0
         NMat0=    1 NMatS0=      1 NMatT0=    0 NMatD0=    1 NMtDS0=    0 NMtDT0=    0
 Petite list used in FoFCou.
 Keep R1 ints in memory in canonical form, NReq=22696891.
 Requested convergence on RMS density matrix=1.00D-08 within 128 cycles.
 Requested convergence on MAX density matrix=1.00D-06.
 Requested convergence on             energy=1.00D-06.
 No special actions if energy rises.
 Integral accuracy reduced to 1.0D-05 until final iterations.
 Initial convergence to 1.0D-05 achieved.  Increase integral accuracy.
 SCF Done:  E(RPBE1PBE) =  -643.713828730     A.U. after   11 cycles
            NFock= 11  Conv=0.43D-08     -V/T= 2.0036
 Calling FoFJK, ICntrl=      2127 FMM=F ISym2X=0 I1Cent= 0 IOpClX= 0 NMat=1 NMatS=1 NMatT=0.
 ***** Axes restored to original set *****
 -------------------------------------------------------------------
 Center     Atomic                   Forces (Hartrees/Bohr)
 Number     Number              X              Y              Z
 -------------------------------------------------------------------
      1       15           0.000095000    0.001585166   -0.000644552
      2        8          -0.000816346   -0.000372252   -0.001297269
      3        8          -0.000110468    0.001038561    0.001147147
      4        8           0.001487317   -0.000191880   -0.000195053
      5        1          -0.001004264    0.000048323    0.000759841
      6        1          -0.000290290   -0.000979400   -0.000834458
      7        1           0.000951961   -0.000149573    0.000395045
      8        8          -0.000312910   -0.000978946    0.000669299
 -------------------------------------------------------------------
 Cartesian Forces:  Max     0.001585166 RMS     0.000817409

 GradGradGradGradGradGradGradGradGradGradGradGradGradGradGradGradGradGrad
 Berny optimization.
 Using GEDIIS/GDIIS optimizer.
 FormGI is forming the generalized inverse of G from B-inverse, IUseBI=4.
 Internal  Forces:  Max     0.001202352 RMS     0.000598199
 Search for a local minimum.
 Step number   4 out of a maximum of   35
 All quantities printed in internal units (Hartrees-Bohrs-Radians)
 Mixed Optimization -- En-DIIS/RFO-DIIS
 Update second derivatives using D2CorX and points    2    3    4
 DE= -9.65D-04 DEPred=-7.68D-04 R= 1.26D+00
 TightC=F SS=  1.41D+00  RLast= 1.81D-01 DXNew= 1.4270D+00 5.4450D-01
 Trust test= 1.26D+00 RLast= 1.81D-01 DXMaxT set to 8.49D-01
 ITU=  1  1  1  0
 Use linear search instead of GDIIS.
     Eigenvalues ---    0.01008   0.01605   0.01610   0.11911   0.11962
     Eigenvalues ---    0.12197   0.16000   0.16012   0.17934   0.20863
     Eigenvalues ---    0.21000   0.31820   0.31857   0.41497   0.49407
     Eigenvalues ---    0.49417   0.50089   0.61811
 RFO step:  Lambda=-2.76878117D-04 EMin= 1.00760604D-02
 Quartic linear search produced a step of  0.35929.
 Iteration  1 RMS(Cart)=  0.02536415 RMS(Int)=  0.00097579
 Iteration  2 RMS(Cart)=  0.00091689 RMS(Int)=  0.00001263
 Iteration  3 RMS(Cart)=  0.00000112 RMS(Int)=  0.00001261
 Iteration  4 RMS(Cart)=  0.00000000 RMS(Int)=  0.00001261
 Variable       Old X    -DE/DX   Delta X   Delta X   Delta X     New X
                                 (Linear)    (Quad)   (Total)
    R1        3.06577   0.00044   0.00713  -0.00526   0.00188   3.06764
    R2        3.06508   0.00003   0.00764  -0.00725   0.00039   3.06547
    R3        3.06820   0.00022   0.00730  -0.00625   0.00105   3.06925
    R4        2.81131   0.00120   0.00363  -0.00111   0.00252   2.81383
    R5        1.83025   0.00022  -0.00154   0.00065  -0.00089   1.82936
    R6        1.82996   0.00016  -0.00126   0.00035  -0.00090   1.82906
    R7        1.83022   0.00016  -0.00122   0.00032  -0.00090   1.82932
    A1        1.76749  -0.00025  -0.00381  -0.00233  -0.00616   1.76134
    A2        1.77704   0.00045  -0.00302   0.00269  -0.00037   1.77667
    A3        2.02611   0.00006   0.00247   0.00116   0.00363   2.02974
    A4        1.75966   0.00032  -0.00287   0.00085  -0.00205   1.75761
    A5        2.04712  -0.00008   0.00301  -0.00045   0.00257   2.04969
    A6        2.04016  -0.00041   0.00245  -0.00170   0.00075   2.04091
    A7        1.88733   0.00115   0.00783   0.00637   0.01420   1.90153
    A8        1.90327   0.00084   0.00889   0.00357   0.01247   1.91573
    A9        1.89882   0.00097   0.00909   0.00447   0.01356   1.91238
    D1       -1.63453  -0.00025  -0.02005  -0.03266  -0.05269  -1.68722
    D2        2.83831  -0.00064  -0.01518  -0.03363  -0.04883   2.78948
    D3        0.60263  -0.00051  -0.01757  -0.03431  -0.05188   0.55075
    D4        3.08128  -0.00093  -0.01960  -0.05299  -0.07261   3.00867
    D5       -1.37773  -0.00044  -0.02452  -0.05053  -0.07503  -1.45276
    D6        0.85775  -0.00076  -0.02171  -0.05234  -0.07404   0.78370
    D7       -1.46483  -0.00073  -0.02412  -0.04919  -0.07330  -1.53813
    D8        3.00183  -0.00067  -0.01854  -0.04764  -0.06620   2.93563
    D9        0.76183  -0.00056  -0.02173  -0.04665  -0.06838   0.69346
         Item               Value     Threshold  Converged?
 Maximum Force            0.001202     0.000450     NO 
 RMS     Force            0.000598     0.000300     NO 
 Maximum Displacement     0.053472     0.001800     NO 
 RMS     Displacement     0.025190     0.001200     NO 
 Predicted change in Energy=-1.995182D-04
 GradGradGradGradGradGradGradGradGradGradGradGradGradGradGradGradGradGrad

                          Input orientation:                          
 ---------------------------------------------------------------------
 Center     Atomic      Atomic             Coordinates (Angstroms)
 Number     Number       Type             X           Y           Z
 ---------------------------------------------------------------------
      1         15           0        0.598860   -0.635087    0.742245
      2          8           0        2.040817   -0.438955    0.022883
      3          8           0       -0.400816   -0.126161   -0.429549
      4          8           0        0.554808    0.637707    1.750217
      5          1           0        0.966115    0.398186    2.593156
      6          1           0       -1.318307   -0.301677   -0.176123
      7          1           0        2.320656   -1.284626   -0.356151
      8          8           0        0.334548   -1.974916    1.335681
 ---------------------------------------------------------------------
                    Distance matrix (angstroms):
                    1          2          3          4          5
     1  P    0.000000
     2  O    1.623326   0.000000
     3  O    1.622178   2.502819   0.000000
     4  O    1.624178   2.520141   2.499619   0.000000
     5  H    2.151372   2.908968   3.358599   0.968034   0.000000
     6  H    2.151765   3.367813   0.967895   2.846364   3.657499
     7  H    2.143118   0.968058   2.958688   3.354158   3.655824
     8  O    1.489016   2.644612   2.659830   2.654460   2.758937
                    6          7          8
     6  H    0.000000
     7  H    3.773679   0.000000
     8  O    2.795928   2.698781   0.000000
 Stoichiometry    H3O4P
 Framework group  C1[X(H3O4P)]
 Deg. of freedom    18
 Full point group                 C1      NOp   1
 Largest Abelian subgroup         C1      NOp   1
 Largest concise Abelian subgroup C1      NOp   1
                         Standard orientation:                         
 ---------------------------------------------------------------------
 Center     Atomic      Atomic             Coordinates (Angstroms)
 Number     Number       Type             X           Y           Z
 ---------------------------------------------------------------------
      1         15           0        0.025927    0.011375    0.125855
      2          8           0        1.298104   -0.063603   -0.879696
      3          8           0       -0.797130   -1.313250   -0.320694
      4          8           0       -0.874903    1.173238   -0.564458
      5          1           0       -0.603405    2.038407   -0.225545
      6          1           0       -1.534793   -1.460993    0.288278
      7          1           0        2.040035   -0.479612   -0.417516
      8          8           0        0.337588    0.170060    1.573217
 ---------------------------------------------------------------------
 Rotational constants (GHZ):           4.4295020           4.3292145           4.2877792
 Standard basis: CC-pVDZ (5D, 7F)
 There are    94 symmetry adapted cartesian basis functions of A   symmetry.
 There are    89 symmetry adapted basis functions of A   symmetry.
    89 basis functions,   224 primitive gaussians,    94 cartesian basis functions
    25 alpha electrons       25 beta electrons
       nuclear repulsion energy       276.2270654843 Hartrees.
 NAtoms=    8 NActive=    8 NUniq=    8 SFac= 1.00D+00 NAtFMM=   60 NAOKFM=F Big=F
 Integral buffers will be    131072 words long.
 Raffenetti 2 integral format.
 Two-electron integral symmetry is turned on.
 Nuclear repulsion after empirical dispersion term =      276.2222849323 Hartrees.
 One-electron integrals computed using PRISM.
 NBasis=    89 RedAO= T EigKep=  1.54D-02  NBF=    89
 NBsUse=    89 1.00D-06 EigRej= -1.00D+00 NBFU=    89
 Initial guess from the checkpoint file:  "/scratch/js1212.15167/H3PO4-GPOF.chk"
 B after Tr=     0.000000    0.000000   -0.000000
         Rot=    0.998895    0.023190    0.007057   -0.040257 Ang=   5.39 deg.
 ExpMin= 1.19D-01 ExpMax= 9.48D+04 ExpMxC= 3.24D+03 IAcc=2 IRadAn=         4 AccDes= 0.00D+00
 Harris functional with IExCor= 1009 and IRadAn=       4 diagonalized for initial guess.
 HarFok:  IExCor= 1009 AccDes= 0.00D+00 IRadAn=         4 IDoV= 1 UseB2=F ITyADJ=14
 ICtDFT=  3500011 ScaDFX=  1.000000  1.000000  1.000000  1.000000
 FoFCou: FMM=F IPFlag=           0 FMFlag=      100000 FMFlg1=           0
         NFxFlg=           0 DoJE=T BraDBF=F KetDBF=T FulRan=T
         wScrn=  0.000000 ICntrl=       500 IOpCl=  0 I1Cent=   200000004 NGrid=           0
         NMat0=    1 NMatS0=      1 NMatT0=    0 NMatD0=    1 NMtDS0=    0 NMtDT0=    0
 Petite list used in FoFCou.
 Keep R1 ints in memory in canonical form, NReq=22696891.
 Requested convergence on RMS density matrix=1.00D-08 within 128 cycles.
 Requested convergence on MAX density matrix=1.00D-06.
 Requested convergence on             energy=1.00D-06.
 No special actions if energy rises.
 Integral accuracy reduced to 1.0D-05 until final iterations.
 Initial convergence to 1.0D-05 achieved.  Increase integral accuracy.
 SCF Done:  E(RPBE1PBE) =  -643.714104952     A.U. after   11 cycles
            NFock= 11  Conv=0.34D-08     -V/T= 2.0036
 Calling FoFJK, ICntrl=      2127 FMM=F ISym2X=0 I1Cent= 0 IOpClX= 0 NMat=1 NMatS=1 NMatT=0.
 ***** Axes restored to original set *****
 -------------------------------------------------------------------
 Center     Atomic                   Forces (Hartrees/Bohr)
 Number     Number              X              Y              Z
 -------------------------------------------------------------------
      1       15           0.000423184    0.001173130   -0.000675763
      2        8          -0.000665863    0.000305738    0.000014306
      3        8           0.000395894    0.000478732    0.000276020
      4        8           0.000499982   -0.000103772   -0.000580699
      5        1          -0.000367015   -0.000796712    0.000194764
      6        1          -0.000009802   -0.000933568    0.000229612
      7        1          -0.000222630   -0.000480522    0.000405201
      8        8          -0.000053749    0.000356974    0.000136558
 -------------------------------------------------------------------
 Cartesian Forces:  Max     0.001173130 RMS     0.000497262

 GradGradGradGradGradGradGradGradGradGradGradGradGradGradGradGradGradGrad
 Berny optimization.
 Using GEDIIS/GDIIS optimizer.
 FormGI is forming the generalized inverse of G from B-inverse, IUseBI=4.
 Internal  Forces:  Max     0.001095540 RMS     0.000594775
 Search for a local minimum.
 Step number   5 out of a maximum of   35
 All quantities printed in internal units (Hartrees-Bohrs-Radians)
 Mixed Optimization -- En-DIIS/RFO-DIIS
 Swapping is turned off.
 Update second derivatives using D2CorX and points    3    4    5
 DE= -2.76D-04 DEPred=-2.00D-04 R= 1.38D+00
 TightC=F SS=  1.41D+00  RLast= 1.98D-01 DXNew= 1.4270D+00 5.9461D-01
 Trust test= 1.38D+00 RLast= 1.98D-01 DXMaxT set to 8.49D-01
 ITU=  1  1  1  1  0
     Eigenvalues ---    0.00510   0.01606   0.01611   0.11904   0.12002
     Eigenvalues ---    0.14163   0.16001   0.16018   0.18384   0.20851
     Eigenvalues ---    0.20955   0.31827   0.31910   0.46990   0.49408
     Eigenvalues ---    0.49418   0.50239   0.65235
 En-DIIS/RFO-DIIS/Sim-DIIS IScMMF=       -3 using points:     5    4
 RFO step:  Lambda=-1.91634646D-04.
 DidBck=F Rises=F RFO-DIIS coefs:    1.90618   -0.90618
 Iteration  1 RMS(Cart)=  0.02466857 RMS(Int)=  0.00088414
 Iteration  2 RMS(Cart)=  0.00077890 RMS(Int)=  0.00000384
 Iteration  3 RMS(Cart)=  0.00000072 RMS(Int)=  0.00000381
 Variable       Old X    -DE/DX   Delta X   Delta X   Delta X     New X
                                 (Linear)    (Quad)   (Total)
    R1        3.06764  -0.00100   0.00170  -0.00153   0.00017   3.06781
    R2        3.06547  -0.00075   0.00035   0.00074   0.00109   3.06656
    R3        3.06925  -0.00095   0.00095  -0.00076   0.00020   3.06945
    R4        2.81383  -0.00026   0.00229  -0.00001   0.00228   2.81611
    R5        1.82936   0.00020  -0.00080   0.00059  -0.00021   1.82915
    R6        1.82906   0.00024  -0.00082   0.00085   0.00004   1.82909
    R7        1.82932   0.00021  -0.00082   0.00079  -0.00002   1.82930
    A1        1.76134   0.00031  -0.00558   0.00599   0.00040   1.76174
    A2        1.77667   0.00030  -0.00033   0.00209   0.00175   1.77842
    A3        2.02974  -0.00010   0.00329  -0.00284   0.00045   2.03020
    A4        1.75761   0.00069  -0.00185   0.00611   0.00426   1.76186
    A5        2.04969  -0.00036   0.00233  -0.00358  -0.00124   2.04845
    A6        2.04091  -0.00060   0.00068  -0.00510  -0.00442   2.03649
    A7        1.90153  -0.00097   0.01287  -0.01281   0.00006   1.90159
    A8        1.91573  -0.00104   0.01130  -0.01205  -0.00076   1.91498
    A9        1.91238  -0.00110   0.01229  -0.01311  -0.00082   1.91156
    D1       -1.68722   0.00019  -0.04775   0.00697  -0.04077  -1.72798
    D2        2.78948  -0.00070  -0.04425  -0.00154  -0.04578   2.74370
    D3        0.55075  -0.00010  -0.04701   0.00526  -0.04176   0.50900
    D4        3.00867  -0.00065  -0.06580  -0.00618  -0.07199   2.93668
    D5       -1.45276  -0.00009  -0.06799  -0.00101  -0.06900  -1.52175
    D6        0.78370  -0.00054  -0.06710  -0.00501  -0.07211   0.71160
    D7       -1.53813  -0.00008  -0.06642   0.00311  -0.06330  -1.60143
    D8        2.93563  -0.00066  -0.05999  -0.00528  -0.06528   2.87035
    D9        0.69346  -0.00036  -0.06196  -0.00226  -0.06421   0.62924
         Item               Value     Threshold  Converged?
 Maximum Force            0.001096     0.000450     NO 
 RMS     Force            0.000595     0.000300     NO 
 Maximum Displacement     0.058733     0.001800     NO 
 RMS     Displacement     0.024447     0.001200     NO 
 Predicted change in Energy=-9.887900D-05
 GradGradGradGradGradGradGradGradGradGradGradGradGradGradGradGradGradGrad

                          Input orientation:                          
 ---------------------------------------------------------------------
 Center     Atomic      Atomic             Coordinates (Angstroms)
 Number     Number       Type             X           Y           Z
 ---------------------------------------------------------------------
      1         15           0        0.602061   -0.622228    0.738687
      2          8           0        2.037029   -0.438882    0.001985
      3          8           0       -0.408087   -0.106425   -0.421866
      4          8           0        0.581376    0.646972    1.752095
      5          1           0        0.948218    0.383373    2.608254
      6          1           0       -1.319162   -0.332757   -0.186124
      7          1           0        2.322835   -1.295212   -0.347205
      8          8           0        0.332411   -1.960371    1.336535
 ---------------------------------------------------------------------
                    Distance matrix (angstroms):
                    1          2          3          4          5
     1  P    0.000000
     2  O    1.623415   0.000000
     3  O    1.622756   2.503751   0.000000
     4  O    1.624282   2.522080   2.504545   0.000000
     5  H    2.150892   2.941811   3.355755   0.968022   0.000000
     6  H    2.151783   3.363133   0.967914   2.885932   3.669115
     7  H    2.143159   0.967946   2.979383   3.348405   3.666327
     8  O    1.490221   2.646067   2.660343   2.651963   2.736717
                    6          7          8
     6  H    0.000000
     7  H    3.770465   0.000000
     8  O    2.774043   2.690576   0.000000
 Stoichiometry    H3O4P
 Framework group  C1[X(H3O4P)]
 Deg. of freedom    18
 Full point group                 C1      NOp   1
 Largest Abelian subgroup         C1      NOp   1
 Largest concise Abelian subgroup C1      NOp   1
                         Standard orientation:                         
 ---------------------------------------------------------------------
 Center     Atomic      Atomic             Coordinates (Angstroms)
 Number     Number       Type             X           Y           Z
 ---------------------------------------------------------------------
      1         15           0        0.019979    0.014376    0.123217
      2          8           0        1.334815   -0.036006   -0.827648
      3          8           0       -0.737667   -1.348391   -0.326422
      4          8           0       -0.890131    1.133863   -0.622931
      5          1           0       -0.701734    2.006257   -0.248096
      6          1           0       -1.454275   -1.543669    0.294222
      7          1           0        2.080210   -0.380835   -0.315401
      8          8           0        0.264997    0.213360    1.579628
 ---------------------------------------------------------------------
 Rotational constants (GHZ):           4.4175034           4.3280417           4.2890431
 Standard basis: CC-pVDZ (5D, 7F)
 There are    94 symmetry adapted cartesian basis functions of A   symmetry.
 There are    89 symmetry adapted basis functions of A   symmetry.
    89 basis functions,   224 primitive gaussians,    94 cartesian basis functions
    25 alpha electrons       25 beta electrons
       nuclear repulsion energy       276.1225482852 Hartrees.
 NAtoms=    8 NActive=    8 NUniq=    8 SFac= 1.00D+00 NAtFMM=   60 NAOKFM=F Big=F
 Integral buffers will be    131072 words long.
 Raffenetti 2 integral format.
 Two-electron integral symmetry is turned on.
 Nuclear repulsion after empirical dispersion term =      276.1177696987 Hartrees.
 One-electron integrals computed using PRISM.
 NBasis=    89 RedAO= T EigKep=  1.55D-02  NBF=    89
 NBsUse=    89 1.00D-06 EigRej= -1.00D+00 NBFU=    89
 Initial guess from the checkpoint file:  "/scratch/js1212.15167/H3PO4-GPOF.chk"
 B after Tr=    -0.000000   -0.000000    0.000000
         Rot=    0.999574    0.009564    0.019683   -0.019305 Ang=   3.34 deg.
 ExpMin= 1.19D-01 ExpMax= 9.48D+04 ExpMxC= 3.24D+03 IAcc=2 IRadAn=         4 AccDes= 0.00D+00
 Harris functional with IExCor= 1009 and IRadAn=       4 diagonalized for initial guess.
 HarFok:  IExCor= 1009 AccDes= 0.00D+00 IRadAn=         4 IDoV= 1 UseB2=F ITyADJ=14
 ICtDFT=  3500011 ScaDFX=  1.000000  1.000000  1.000000  1.000000
 FoFCou: FMM=F IPFlag=           0 FMFlag=      100000 FMFlg1=           0
         NFxFlg=           0 DoJE=T BraDBF=F KetDBF=T FulRan=T
         wScrn=  0.000000 ICntrl=       500 IOpCl=  0 I1Cent=   200000004 NGrid=           0
         NMat0=    1 NMatS0=      1 NMatT0=    0 NMatD0=    1 NMtDS0=    0 NMtDT0=    0
 Petite list used in FoFCou.
 Keep R1 ints in memory in canonical form, NReq=22696891.
 Requested convergence on RMS density matrix=1.00D-08 within 128 cycles.
 Requested convergence on MAX density matrix=1.00D-06.
 Requested convergence on             energy=1.00D-06.
 No special actions if energy rises.
 Integral accuracy reduced to 1.0D-05 until final iterations.
 Initial convergence to 1.0D-05 achieved.  Increase integral accuracy.
 SCF Done:  E(RPBE1PBE) =  -643.714239626     A.U. after   11 cycles
            NFock= 11  Conv=0.41D-08     -V/T= 2.0036
 Calling FoFJK, ICntrl=      2127 FMM=F ISym2X=0 I1Cent= 0 IOpClX= 0 NMat=1 NMatS=1 NMatT=0.
 ***** Axes restored to original set *****
 -------------------------------------------------------------------
 Center     Atomic                   Forces (Hartrees/Bohr)
 Number     Number              X              Y              Z
 -------------------------------------------------------------------
      1       15           0.000082443    0.000024882   -0.000027256
      2        8          -0.000629384    0.000627387    0.000490558
      3        8           0.000906991    0.000189713    0.000293793
      4        8          -0.000024235    0.000056337   -0.000942670
      5        1          -0.000065799   -0.000903236   -0.000130642
      6        1           0.000154155   -0.000670078    0.000562343
      7        1          -0.000527290   -0.000492084    0.000195525
      8        8           0.000103119    0.001167078   -0.000441653
 -------------------------------------------------------------------
 Cartesian Forces:  Max     0.001167078 RMS     0.000525526

 GradGradGradGradGradGradGradGradGradGradGradGradGradGradGradGradGradGrad
 Berny optimization.
 Using GEDIIS/GDIIS optimizer.
 FormGI is forming the generalized inverse of G from B-inverse, IUseBI=4.
 Internal  Forces:  Max     0.001595407 RMS     0.000752536
 Search for a local minimum.
 Step number   6 out of a maximum of   35
 All quantities printed in internal units (Hartrees-Bohrs-Radians)
 Mixed Optimization -- En-DIIS/RFO-DIIS
 Swapping is turned off.
 Update second derivatives using D2CorX and points    3    4    5    6
 DE= -1.35D-04 DEPred=-9.89D-05 R= 1.36D+00
 TightC=F SS=  1.41D+00  RLast= 1.82D-01 DXNew= 1.4270D+00 5.4569D-01
 Trust test= 1.36D+00 RLast= 1.82D-01 DXMaxT set to 8.49D-01
 ITU=  1  1  1  1  1  0
     Eigenvalues ---    0.00352   0.01609   0.01618   0.11937   0.12033
     Eigenvalues ---    0.13321   0.16001   0.16033   0.19224   0.20912
     Eigenvalues ---    0.20977   0.31828   0.31937   0.45767   0.49407
     Eigenvalues ---    0.49433   0.50022   0.66580
 En-DIIS/RFO-DIIS/Sim-DIIS IScMMF=       -3 using points:     6    5    4
 RFO step:  Lambda=-8.94579025D-05.
 DidBck=F Rises=F RFO-DIIS coefs:    2.13030   -1.50667    0.37636
 Iteration  1 RMS(Cart)=  0.01987870 RMS(Int)=  0.00058280
 Iteration  2 RMS(Cart)=  0.00048440 RMS(Int)=  0.00000454
 Iteration  3 RMS(Cart)=  0.00000025 RMS(Int)=  0.00000453
 Variable       Old X    -DE/DX   Delta X   Delta X   Delta X     New X
                                 (Linear)    (Quad)   (Total)
    R1        3.06781  -0.00132  -0.00052  -0.00130  -0.00182   3.06599
    R2        3.06656  -0.00143   0.00109  -0.00359  -0.00250   3.06406
    R3        3.06945  -0.00133  -0.00017  -0.00189  -0.00206   3.06738
    R4        2.81611  -0.00124   0.00162  -0.00191  -0.00028   2.81583
    R5        1.82915   0.00021   0.00009   0.00045   0.00055   1.82970
    R6        1.82909   0.00015   0.00038   0.00007   0.00044   1.82954
    R7        1.82930   0.00011   0.00031  -0.00001   0.00030   1.82960
    A1        1.76174   0.00019   0.00277  -0.00127   0.00149   1.76323
    A2        1.77842   0.00008   0.00211  -0.00001   0.00209   1.78052
    A3        2.03020   0.00001  -0.00085   0.00119   0.00033   2.03053
    A4        1.76186   0.00027   0.00558  -0.00200   0.00357   1.76543
    A5        2.04845  -0.00028  -0.00237  -0.00079  -0.00315   2.04529
    A6        2.03649  -0.00017  -0.00528   0.00226  -0.00301   2.03348
    A7        1.90159  -0.00131  -0.00528  -0.00179  -0.00707   1.89451
    A8        1.91498  -0.00148  -0.00555  -0.00406  -0.00961   1.90537
    A9        1.91156  -0.00160  -0.00603  -0.00449  -0.01052   1.90104
    D1       -1.72798   0.00018  -0.02625   0.00507  -0.02117  -1.74916
    D2        2.74370  -0.00018  -0.03337   0.00752  -0.02586   2.71784
    D3        0.50900  -0.00003  -0.02767   0.00383  -0.02384   0.48515
    D4        2.93668  -0.00027  -0.05404  -0.00217  -0.05621   2.88047
    D5       -1.52175  -0.00007  -0.04975  -0.00300  -0.05274  -1.57449
    D6        0.71160  -0.00025  -0.05363  -0.00218  -0.05582   0.65578
    D7       -1.60143  -0.00004  -0.04396  -0.00274  -0.04670  -1.64813
    D8        2.87035  -0.00033  -0.04887  -0.00087  -0.04975   2.82060
    D9        0.62924  -0.00007  -0.04685   0.00028  -0.04657   0.58267
         Item               Value     Threshold  Converged?
 Maximum Force            0.001595     0.000450     NO 
 RMS     Force            0.000753     0.000300     NO 
 Maximum Displacement     0.052255     0.001800     NO 
 RMS     Displacement     0.019816     0.001200     NO 
 Predicted change in Energy=-4.273662D-05
 GradGradGradGradGradGradGradGradGradGradGradGradGradGradGradGradGradGrad

                          Input orientation:                          
 ---------------------------------------------------------------------
 Center     Atomic      Atomic             Coordinates (Angstroms)
 Number     Number       Type             X           Y           Z
 ---------------------------------------------------------------------
      1         15           0        0.605412   -0.610032    0.736096
      2          8           0        2.035308   -0.437585   -0.010909
      3          8           0       -0.410855   -0.091346   -0.415948
      4          8           0        0.600251    0.655646    1.752352
      5          1           0        0.932837    0.367258    2.614672
      6          1           0       -1.312734   -0.360409   -0.188937
      7          1           0        2.316718   -1.303221   -0.341005
      8          8           0        0.329742   -1.945841    1.336040
 ---------------------------------------------------------------------
                    Distance matrix (angstroms):
                    1          2          3          4          5
     1  P    0.000000
     2  O    1.622454   0.000000
     3  O    1.621431   2.503528   0.000000
     4  O    1.623190   2.522624   2.506364   0.000000
     5  H    2.142744   2.959205   3.346713   0.968182   0.000000
     6  H    2.144127   3.353660   0.968149   2.908691   3.665012
     7  H    2.137575   0.968236   2.985618   3.341492   3.666287
     8  O    1.490072   2.645385   2.656520   2.648438   2.710913
                    6          7          8
     6  H    0.000000
     7  H    3.752991   0.000000
     8  O    2.745338   2.678342   0.000000
 Stoichiometry    H3O4P
 Framework group  C1[X(H3O4P)]
 Deg. of freedom    18
 Full point group                 C1      NOp   1
 Largest Abelian subgroup         C1      NOp   1
 Largest concise Abelian subgroup C1      NOp   1
                         Standard orientation:                         
 ---------------------------------------------------------------------
 Center     Atomic      Atomic             Coordinates (Angstroms)
 Number     Number       Type             X           Y           Z
 ---------------------------------------------------------------------
      1         15           0        0.013856    0.015128    0.120517
      2          8           0        1.363269    0.085918   -0.777497
      3          8           0       -0.604613   -1.404445   -0.360469
      4          8           0       -0.960456    1.059497   -0.650686
      5          1           0       -0.886920    1.927733   -0.228625
      6          1           0       -1.289150   -1.681457    0.265619
      7          1           0        2.114232   -0.178149   -0.226313
      8          8           0        0.183549    0.222148    1.586348
 ---------------------------------------------------------------------
 Rotational constants (GHZ):           4.4153162           4.3367869           4.2982048
 Standard basis: CC-pVDZ (5D, 7F)
 There are    94 symmetry adapted cartesian basis functions of A   symmetry.
 There are    89 symmetry adapted basis functions of A   symmetry.
    89 basis functions,   224 primitive gaussians,    94 cartesian basis functions
    25 alpha electrons       25 beta electrons
       nuclear repulsion energy       276.2945243176 Hartrees.
 NAtoms=    8 NActive=    8 NUniq=    8 SFac= 1.00D+00 NAtFMM=   60 NAOKFM=F Big=F
 Integral buffers will be    131072 words long.
 Raffenetti 2 integral format.
 Two-electron integral symmetry is turned on.
 Nuclear repulsion after empirical dispersion term =      276.2897426501 Hartrees.
 One-electron integrals computed using PRISM.
 NBasis=    89 RedAO= T EigKep=  1.55D-02  NBF=    89
 NBsUse=    89 1.00D-06 EigRej= -1.00D+00 NBFU=    89
 Initial guess from the checkpoint file:  "/scratch/js1212.15167/H3PO4-GPOF.chk"
 B after Tr=     0.000000    0.000000    0.000000
         Rot=    0.998827   -0.003445    0.018524   -0.044609 Ang=  -5.55 deg.
 ExpMin= 1.19D-01 ExpMax= 9.48D+04 ExpMxC= 3.24D+03 IAcc=2 IRadAn=         4 AccDes= 0.00D+00
 Harris functional with IExCor= 1009 and IRadAn=       4 diagonalized for initial guess.
 HarFok:  IExCor= 1009 AccDes= 0.00D+00 IRadAn=         4 IDoV= 1 UseB2=F ITyADJ=14
 ICtDFT=  3500011 ScaDFX=  1.000000  1.000000  1.000000  1.000000
 FoFCou: FMM=F IPFlag=           0 FMFlag=      100000 FMFlg1=           0
         NFxFlg=           0 DoJE=T BraDBF=F KetDBF=T FulRan=T
         wScrn=  0.000000 ICntrl=       500 IOpCl=  0 I1Cent=   200000004 NGrid=           0
         NMat0=    1 NMatS0=      1 NMatT0=    0 NMatD0=    1 NMtDS0=    0 NMtDT0=    0
 Petite list used in FoFCou.
 Keep R1 ints in memory in canonical form, NReq=22696891.
 Requested convergence on RMS density matrix=1.00D-08 within 128 cycles.
 Requested convergence on MAX density matrix=1.00D-06.
 Requested convergence on             energy=1.00D-06.
 No special actions if energy rises.
 Integral accuracy reduced to 1.0D-05 until final iterations.
 Initial convergence to 1.0D-05 achieved.  Increase integral accuracy.
 SCF Done:  E(RPBE1PBE) =  -643.714305198     A.U. after   11 cycles
            NFock= 11  Conv=0.42D-08     -V/T= 2.0036
 Calling FoFJK, ICntrl=      2127 FMM=F ISym2X=0 I1Cent= 0 IOpClX= 0 NMat=1 NMatS=1 NMatT=0.
 ***** Axes restored to original set *****
 -------------------------------------------------------------------
 Center     Atomic                   Forces (Hartrees/Bohr)
 Number     Number              X              Y              Z
 -------------------------------------------------------------------
      1       15           0.000052569   -0.000338145    0.000039103
      2        8           0.000004184    0.000245946    0.000462210
      3        8           0.000037585    0.000073438   -0.000197571
      4        8           0.000009776    0.000139866   -0.000307660
      5        1           0.000064563   -0.000345027   -0.000005441
      6        1           0.000060965   -0.000229832    0.000238086
      7        1          -0.000312787   -0.000130750   -0.000027520
      8        8           0.000083146    0.000584505   -0.000201206
 -------------------------------------------------------------------
 Cartesian Forces:  Max     0.000584505 RMS     0.000232211

 GradGradGradGradGradGradGradGradGradGradGradGradGradGradGradGradGradGrad
 Berny optimization.
 Using GEDIIS/GDIIS optimizer.
 FormGI is forming the generalized inverse of G from B-inverse, IUseBI=4.
 Internal  Forces:  Max     0.000620388 RMS     0.000289818
 Search for a local minimum.
 Step number   7 out of a maximum of   35
 All quantities printed in internal units (Hartrees-Bohrs-Radians)
 Mixed Optimization -- En-DIIS/RFO-DIIS
 Swapping is turned off.
 Update second derivatives using D2CorX and points    4    5    6    7
 DE= -6.56D-05 DEPred=-4.27D-05 R= 1.53D+00
 TightC=F SS=  1.41D+00  RLast= 1.34D-01 DXNew= 1.4270D+00 4.0107D-01
 Trust test= 1.53D+00 RLast= 1.34D-01 DXMaxT set to 8.49D-01
 ITU=  1  1  1  1  1  1  0
     Eigenvalues ---    0.00356   0.01609   0.01629   0.11634   0.12008
     Eigenvalues ---    0.12108   0.16000   0.16005   0.18378   0.20889
     Eigenvalues ---    0.21131   0.31829   0.32021   0.41539   0.49408
     Eigenvalues ---    0.49436   0.50011   0.62762
 En-DIIS/RFO-DIIS/Sim-DIIS IScMMF=       -3 using points:     7    6    5    4
 RFO step:  Lambda=-1.42518306D-05.
[...]
 Molecular mass:    97.97690 amu.
 Principal axes and moments of inertia in atomic units:
                           1         2         3
     Eigenvalues --   409.36137 417.27320 417.55249
           X           -0.03991   0.97864   0.20169
           Y           -0.00062  -0.20188   0.97941
           Z            0.99920   0.03896   0.00867
 This molecule is an asymmetric top.
 Rotational symmetry number  1.
 Rotational temperatures (Kelvin)      0.21158     0.20757     0.20743
 Rotational constants (GHZ):           4.40867     4.32508     4.32219
 Zero-point vibrational energy     127294.9 (Joules/Mol)
                                   30.42420 (Kcal/Mol)
 Warning -- explicit consideration of   8 degrees of freedom as
           vibrations may cause significant error
 Vibrational temperatures:    211.63   219.00   422.80   519.40   520.14
          (Kelvin)            621.29   624.67   625.00  1178.57  1335.30
                             1335.52  1523.88  1524.36  1525.61  1880.68
                             5515.91  5516.10  5520.25
 
 Zero-point correction=                           0.048484 (Hartree/Particle)
 Thermal correction to Energy=                    0.054834
 Thermal correction to Enthalpy=                  0.055778
 Thermal correction to Gibbs Free Energy=         0.018861
 Sum of electronic and zero-point Energies=           -643.665850
 Sum of electronic and thermal Energies=              -643.659500
 Sum of electronic and thermal Enthalpies=            -643.658556
 Sum of electronic and thermal Free Energies=         -643.695472
 
                     E (Thermal)             CV                S
                      KCal/Mol        Cal/Mol-Kelvin    Cal/Mol-Kelvin
 Total                   34.409             21.388             77.697
 Electronic               0.000              0.000              0.000
 Translational            0.889              2.981             39.657
 Rotational               0.889              2.981             25.770
 Vibrational             32.631             15.426             12.270
 Vibration     1          0.617              1.906              2.710
 Vibration     2          0.619              1.900              2.644
 Vibration     3          0.689              1.685              1.452
 Vibration     4          0.735              1.553              1.118
 Vibration     5          0.736              1.552              1.116
 Vibration     6          0.793              1.401              0.853
 Vibration     7          0.795              1.396              0.845
 Vibration     8          0.795              1.395              0.844
                       Q            Log10(Q)             Ln(Q)
 Total Bot       0.211029D-08         -8.675657        -19.976439
 Total V=0       0.422123D+14         13.625439         31.373734
 Vib (Bot)       0.579080D-21        -21.237262        -48.900602
 Vib (Bot)    1  0.137968D+01          0.139780          0.321854
 Vib (Bot)    2  0.133130D+01          0.124276          0.286155
 Vib (Bot)    3  0.649381D+00         -0.187501         -0.431736
 Vib (Bot)    4  0.507394D+00         -0.294655         -0.678468
 Vib (Bot)    5  0.506494D+00         -0.295426         -0.680243
 Vib (Bot)    6  0.402923D+00         -0.394778         -0.909009
 Vib (Bot)    7  0.400010D+00         -0.397929         -0.916265
 Vib (Bot)    8  0.399723D+00         -0.398240         -0.916982
 Vib (V=0)       0.115834D+02          1.063835          2.449571
 Vib (V=0)    1  0.196749D+01          0.293913          0.676759
 Vib (V=0)    2  0.192210D+01          0.283775          0.653416
 Vib (V=0)    3  0.131957D+01          0.120432          0.277306
 Vib (V=0)    4  0.121235D+01          0.083630          0.192564
 Vib (V=0)    5  0.121171D+01          0.083400          0.192035
 Vib (V=0)    6  0.114214D+01          0.057720          0.132906
 Vib (V=0)    7  0.114032D+01          0.057026          0.131308
 Vib (V=0)    8  0.114014D+01          0.056958          0.131151
 Electronic      0.100000D+01          0.000000          0.000000
 Translational   0.381188D+08          7.581139         17.456219
 Rotational      0.956015D+05          4.980465         11.467944
 ***** Axes restored to original set *****
 -------------------------------------------------------------------
 Center     Atomic                   Forces (Hartrees/Bohr)
 Number     Number              X              Y              Z
 -------------------------------------------------------------------
      1       15          -0.000002436   -0.000000535    0.000006659
      2        8           0.000010412   -0.000007872   -0.000007444
      3        8          -0.000000756    0.000011516    0.000012048
      4        8          -0.000023522    0.000007324    0.000002326
      5        1           0.000014188    0.000001359   -0.000006614
      6        1           0.000002667   -0.000010642   -0.000000828
      7        1           0.000004758   -0.000003122    0.000005112
      8        8          -0.000005311    0.000001972   -0.000011260
 -------------------------------------------------------------------
 Cartesian Forces:  Max     0.000023522 RMS     0.000008545
 FormGI is forming the generalized inverse of G from B-inverse, IUseBI=4.

 GradGradGradGradGradGradGradGradGradGradGradGradGradGradGradGradGradGrad
 Berny optimization.
 Internal  Forces:  Max     0.000014828 RMS     0.000008343
 Search for a local minimum.
 Step number   1 out of a maximum of    2
 All quantities printed in internal units (Hartrees-Bohrs-Radians)
 Second derivative matrix not updated -- analytic derivatives used.
 ITU=  0
     Eigenvalues ---    0.00106   0.00113   0.00328   0.09760   0.09773
     Eigenvalues ---    0.10269   0.13903   0.13933   0.16393   0.18896
     Eigenvalues ---    0.18944   0.35962   0.35977   0.40179   0.53021
     Eigenvalues ---    0.53064   0.53067   0.64247
 Angle between quadratic step and forces=  58.27 degrees.
 Linear search not attempted -- first point.
 Iteration  1 RMS(Cart)=  0.00321277 RMS(Int)=  0.00001354
 Iteration  2 RMS(Cart)=  0.00001122 RMS(Int)=  0.00000007
 Iteration  3 RMS(Cart)=  0.00000000 RMS(Int)=  0.00000007
 Variable       Old X    -DE/DX   Delta X   Delta X   Delta X     New X
                                 (Linear)    (Quad)   (Total)
    R1        3.06519   0.00001   0.00000   0.00018   0.00018   3.06537
    R2        3.06548  -0.00001   0.00000  -0.00011  -0.00011   3.06536
    R3        3.06541   0.00000   0.00000  -0.00004  -0.00004   3.06537
    R4        2.81501  -0.00001   0.00000  -0.00001  -0.00001   2.81500
    R5        1.82998   0.00000   0.00000   0.00001   0.00001   1.83000
    R6        1.83000   0.00000   0.00000   0.00000   0.00000   1.83000
    R7        1.83000  -0.00000   0.00000  -0.00000  -0.00000   1.82999
    A1        1.77024   0.00001   0.00000   0.00071   0.00071   1.77095
    A2        1.77081   0.00001   0.00000   0.00016   0.00016   1.77097
    A3        2.03603  -0.00001   0.00000  -0.00062  -0.00062   2.03541
    A4        1.77177  -0.00001   0.00000  -0.00081  -0.00081   1.77096
    A5        2.03563  -0.00001   0.00000  -0.00019  -0.00019   2.03544
    A6        2.03465   0.00001   0.00000   0.00076   0.00076   2.03540
    A7        1.89562   0.00000   0.00000  -0.00026  -0.00026   1.89536
    A8        1.89573  -0.00001   0.00000  -0.00038  -0.00038   1.89535
    A9        1.89484  -0.00001   0.00000   0.00050   0.00050   1.89533
    D1       -1.65178  -0.00000   0.00000  -0.00407  -0.00407  -1.65585
    D2        2.80919   0.00000   0.00000  -0.00345  -0.00345   2.80574
    D3        0.57910  -0.00001   0.00000  -0.00415  -0.00415   0.57495
    D4        2.81151  -0.00001   0.00000  -0.00532  -0.00532   2.80619
    D5       -1.65021  -0.00000   0.00000  -0.00518  -0.00518  -1.65539
    D6        0.58037  -0.00000   0.00000  -0.00497  -0.00497   0.57540
    D7       -1.66477   0.00001   0.00000   0.00920   0.00920  -1.65557
    D8        2.79741  -0.00000   0.00000   0.00862   0.00862   2.80603
    D9        0.56620   0.00001   0.00000   0.00902   0.00902   0.57522
         Item               Value     Threshold  Converged?
 Maximum Force            0.000015     0.000450     YES
 RMS     Force            0.000008     0.000300     YES
 Maximum Displacement     0.010493     0.001800     NO 
 RMS     Displacement     0.003212     0.001200     NO 
 Predicted change in Energy=-2.105893D-07
                           ----------------------------
                           ! Non-Optimized Parameters !
                           ! (Angstroms and Degrees)  !
 --------------------------                            --------------------------
 ! Name  Definition              Value          Derivative Info.                !
 --------------------------------------------------------------------------------
 ! R1    R(1,2)                  1.6221         -DE/DX =    0.0                 !
 ! R2    R(1,3)                  1.6221         -DE/DX =    0.0                 !
 ! R3    R(1,4)                  1.6221         -DE/DX =    0.0                 !
 ! R4    R(1,8)                  1.4896         -DE/DX =    0.0                 !
 ! R5    R(2,7)                  0.9684         -DE/DX =    0.0                 !
 ! R6    R(3,6)                  0.9684         -DE/DX =    0.0                 !
 ! R7    R(4,5)                  0.9684         -DE/DX =    0.0                 !
 ! A1    A(2,1,3)              101.468          -DE/DX =    0.0                 !
 ! A2    A(2,1,4)              101.4694         -DE/DX =    0.0                 !
 ! A3    A(2,1,8)              116.6203         -DE/DX =    0.0                 !
 ! A4    A(3,1,4)              101.4685         -DE/DX =    0.0                 !
 ! A5    A(3,1,8)              116.622          -DE/DX =    0.0                 !
 ! A6    A(4,1,8)              116.6201         -DE/DX =    0.0                 !
 ! A7    A(1,2,7)              108.5962         -DE/DX =    0.0                 !
 ! A8    A(1,3,6)              108.5957         -DE/DX =    0.0                 !
 ! A9    A(1,4,5)              108.5945         -DE/DX =    0.0                 !
 ! D1    D(3,1,2,7)            -94.8735         -DE/DX =    0.0                 !
 ! D2    D(4,1,2,7)            160.7569         -DE/DX =    0.0                 !
 ! D3    D(8,1,2,7)             32.9424         -DE/DX =    0.0                 !
 ! D4    D(2,1,3,6)            160.7828         -DE/DX =    0.0                 !
 ! D5    D(4,1,3,6)            -94.847          -DE/DX =    0.0                 !
 ! D6    D(8,1,3,6)             32.968          -DE/DX =    0.0                 !
 ! D7    D(2,1,4,5)            -94.8572         -DE/DX =    0.0                 !
 ! D8    D(3,1,4,5)            160.7737         -DE/DX =    0.0                 !
 ! D9    D(8,1,4,5)             32.9575         -DE/DX =    0.0                 !
 --------------------------------------------------------------------------------
 GradGradGradGradGradGradGradGradGradGradGradGradGradGradGradGradGradGrad


 ----------------------------------------------------------------------

 Electric dipole moment (input orientation):
 (Debye = 10**-18 statcoulomb cm , SI units = C m)
                  (au)            (Debye)         (10**-30 SI)
   Tot        0.216977D-01      0.551499D-01      0.183960D+00
   x         -0.102326D-01     -0.260086D-01     -0.867552D-01
   y         -0.172619D-01     -0.438754D-01     -0.146353D+00
   z          0.825283D-02      0.209766D-01      0.699704D-01

 Dipole polarizability, Alpha (input orientation).
 (esu units = cm**3 , SI units = C**2 m**2 J**-1)
 Alpha(0;0):
               (au)            (10**-24 esu)      (10**-40 SI)
   iso        0.288102D+02      0.426924D+01      0.475017D+01
   aniso      0.548334D+00      0.812548D-01      0.904081D-01
   xx         0.289574D+02      0.429105D+01      0.477443D+01
   yx        -0.101969D+00     -0.151103D-01     -0.168125D-01
   yy         0.285450D+02      0.422993D+01      0.470643D+01
   zx         0.213931D-01      0.317014D-02      0.352725D-02
   zy         0.190760D+00      0.282677D-01      0.314520D-01
   zz         0.289283D+02      0.428673D+01      0.476963D+01

 ----------------------------------------------------------------------

 Dipole orientation:
    15          1.93775612          0.19427522          0.90085681
     8          3.48333714         -1.48261768         -1.14721551
     8         -0.96226496         -0.49694129          0.18724217
     8          2.20664483          3.00705811         -0.28770796
     1          3.62535562          3.84354278          0.51006983
     1         -2.03186608         -0.06801359          1.60881116
     1          3.94004084         -3.07610602         -0.37193754
     8          2.67990783         -0.10896704          3.59928834

 Electric dipole moment (dipole orientation):
 (Debye = 10**-18 statcoulomb cm , SI units = C m)
                  (au)            (Debye)         (10**-30 SI)
   Tot        0.216977D-01      0.551499D-01      0.183960D+00
   x          0.000000D+00      0.000000D+00      0.000000D+00
   y          0.000000D+00      0.000000D+00      0.000000D+00
   z          0.216977D-01      0.551499D-01      0.183960D+00

 Dipole polarizability, Alpha (dipole orientation).
 (esu units = cm**3 , SI units = C**2 m**2 J**-1)
 Alpha(0;0):
               (au)            (10**-24 esu)      (10**-40 SI)
   iso        0.288102D+02      0.426924D+01      0.475017D+01
   aniso      0.548334D+00      0.812548D-01      0.904081D-01
   xx         0.289350D+02      0.428772D+01      0.477074D+01
   yx         0.149247D-01      0.221162D-02      0.246076D-02
   yy         0.290032D+02      0.429783D+01      0.478198D+01
   zx        -0.128645D+00     -0.190632D-01     -0.212107D-01
   zy         0.811586D-01      0.120265D-01      0.133813D-01
   zz         0.284925D+02      0.422216D+01      0.469778D+01

 ----------------------------------------------------------------------
 1\1\GINC-NODE197\Freq\RPBE1PBE\CC-pVDZ\H3O4P1\JS1212\11-Nov-2018\0\\#N
  Geom=AllCheck Guess=TCheck SCRF=Check GenChk RPBE1PBE/CC-pVDZ Freq\\T
 itle Card Required\\0,1\P,0.6074407731,-0.6023021841,0.7466932413\O,2.
 045854581,-0.4428704215,0.0142148541\O,-0.4024160512,-0.0828150769,-0.
 4116641747\O,0.6188510937,0.6653699894,1.7587361499\H,0.9292330045,0.3
 651361679,2.6255170908\H,-1.2936874001,-0.4045417273,-0.2118884189\H,2
 .2843109993,-1.291541452,-0.3866174435\O,0.3070929998,-1.9319652955,1.
 347368701\\Version=ES64L-G16RevA.03\State=1-A\HF=-643.7143336\RMSD=3.3
 57e-09\RMSF=8.545e-06\ZeroPoint=0.0484841\Thermal=0.0548337\Dipole=-0.
 0102326,-0.0172619,0.0082528\DipoleDeriv=2.3068562,-0.0726761,-0.04735
 28,-0.0132382,2.1274903,0.0995945,0.0855882,0.0695542,2.2798186,-1.101
 9009,0.0743299,0.308216,-0.0004521,-0.5012189,0.0228303,0.3154901,0.00
 61108,-0.7554734,-0.9116212,0.1478745,-0.3354398,0.1843349,-0.6178842,
 0.1189647,-0.3856062,0.0729113,-0.8297838,-0.5715697,-0.0694085,-0.008
 2019,-0.0557652,-0.8804091,-0.4255284,-0.0207385,-0.3508654,-0.9071926
 ,0.3143462,0.0413534,-0.0069795,0.0247534,0.2715741,0.044745,-0.012553
 1,0.0785192,0.3606197,0.3535373,-0.0381431,0.0779474,-0.0160111,0.3028
 291,0.0346347,0.0469145,0.0344056,0.2897369,0.3543081,-0.0396388,-0.02
 46919,-0.0676468,0.2516366,0.0084512,-0.0378828,-0.0137644,0.3406664,-
 0.743956,-0.0436913,0.0365025,-0.0559749,-0.9540179,0.0963081,0.008787
 7,0.1031286,-0.7783918\Polar=28.9574173,-0.1019693,28.5449925,0.021393
 1,0.1907597,28.9283093\Quadrupole=3.2221963,-5.123615,1.9014187,-2.004
 0448,0.8647512,3.9603464\PG=C01 [X(H3O4P1)]\NImag=0\\0.57036840,0.0682
 9332,0.85671957,-0.03122173,-0.13643533,0.61729741,-0.23451988,-0.0382
 0213,0.09350386,0.32645568,-0.01225724,-0.07413797,0.00373353,-0.08527
 432,0.46791853,0.10383542,0.01686496,-0.10396670,-0.17792004,0.1768789
 3,0.19152379,-0.15203578,0.05040620,-0.11188423,-0.03090239,0.01054834
 ,-0.01114181,0.61423006,0.03576847,-0.08653145,0.06160403,-0.00397360,
 0.00953455,-0.00083939,0.10881979,0.13913709,-0.08517073,0.06634375,-0
 .17387722,0.00589425,-0.00214358,0.00760565,0.03727938,-0.11263694,0.2
 3239329,-0.05160336,-0.00674259,-0.01121595,-0.00183306,0.01852749,0.0
 1585771,-0.00037657,-0.00781639,-0.01554276,0.09437397,0.00223251,-0.2
 1090553,-0.09167703,0.00353936,-0.00131696,-0.00800807,0.00322720,0.00
 915559,0.00267067,-0.05533909,0.29519258,-0.00293705,-0.12006543,-0.15
 007902,0.00855929,-0.02294369,-0.01044571,-0.01429549,-0.01670903,-0.0
 2228314,0.15012350,-0.00113621,0.59599319,0.00170753,0.00161143,-0.001
 93750,-0.00268107,0.00210392,0.00143330,0.00094678,-0.00177985,-0.0033
 4405,-0.05404293,0.04758256,-0.14778893,0.05593319,-0.00741766,0.00341
 742,-0.03123352,0.00043687,-0.00252010,0.00012156,-0.00249014,-0.00266
 986,-0.00431024,0.05910593,-0.07298679,0.15544197,-0.05150069,0.074035
 17,-0.00894298,0.00421453,-0.02690666,-0.00083345,0.00000663,0.0020539
 6,-0.00009213,-0.00188925,0.00154233,-0.14126199,0.11689252,-0.4173253
 7,0.14911588,-0.12319446,0.43844497,-0.02760127,-0.00813977,0.00167515
 ,-0.00048960,0.00161795,-0.00211509,-0.43865608,-0.14397643,0.07388873
 ,0.00146964,0.00154337,0.00239676,0.00017807,0.00001453,-0.00019135,0.
 46146201,0.01201286,0.00541709,0.00143560,0.00562511,-0.00013087,0.002
 35690,-0.16704925,-0.06541304,0.04079865,0.00032008,-0.00106620,-0.000
 44070,0.00036899,0.00017202,-0.00024939,0.15157048,0.06240026,-0.02865
 010,-0.00620109,0.00035802,-0.00171587,0.00219040,0.00056854,0.1067440
 9,0.04750630,-0.04040729,0.00035312,0.00092256,-0.00347126,0.00007554,
 -0.00063721,-0.00078171,-0.07908454,-0.04279977,0.04449266,-0.01583700
 ,0.02926485,0.01803950,-0.05094662,0.08631822,0.05326279,-0.00135921,-
 0.00232692,-0.00014310,-0.00055239,-0.00115486,0.00266820,-0.00067554,
 0.00054831,0.00049058,-0.00068265,-0.00003900,-0.00072532,0.06738218,-
 0.00255606,0.00107418,-0.00006011,0.12009128,-0.40253797,-0.19175978,-
 0.00262138,-0.00035630,0.00010990,-0.00198349,0.00263664,0.00265728,0.
 00018834,0.00010188,-0.00024095,-0.00017104,0.00046338,-0.00003802,-0.
 11172461,0.40121020,0.00908601,-0.01716794,-0.00706292,0.06347959,-0.1
 7141953,-0.09093142,-0.00288731,0.00046807,-0.00137332,0.00451585,-0.0
 0082545,-0.00216871,0.00008521,-0.00048094,0.00012342,-0.00016165,-0.0
 0017375,-0.00022107,-0.06953366,0.18827435,0.09977744,-0.09047865,-0.0
 9649131,0.04304090,-0.00508306,-0.02158436,0.01678772,0.00815320,0.015
 28492,-0.01286172,0.01256469,-0.00163104,0.00127371,-0.00136604,0.0013
 0285,0.00171544,0.00431988,-0.00280927,0.00300308,0.00267122,-0.001223
 05,-0.00458403,0.06921876,-0.09607620,-0.49505331,0.19263283,-0.002242
 59,0.00319079,0.00438489,-0.00084077,-0.00285658,0.00916778,-0.0060719
 6,-0.02070934,0.00319581,0.00142531,0.00045026,0.00446036,-0.00245908,
 -0.00184265,-0.00094318,-0.00088598,-0.00259202,0.00132518,0.10715127,
 0.51941286,0.04400116,0.19244653,-0.15576291,0.00903237,0.01369730,0.0
 0359189,-0.00372251,0.02249621,-0.00360030,-0.00282948,-0.01883899,0.0
 0978001,0.00236056,0.00429283,0.00284907,0.00359199,-0.00092754,-0.000
 53789,-0.00405900,0.00105732,0.00185658,-0.04837510,-0.21422366,0.1418
 2354\\0.00000244,0.00000053,-0.00000666,-0.00001041,0.00000787,0.00000
 744,0.00000076,-0.00001152,-0.00001205,0.00002352,-0.00000732,-0.00000
 233,-0.00001419,-0.00000136,0.00000661,-0.00000267,0.00001064,0.000000
 83,-0.00000476,0.00000312,-0.00000511,0.00000531,-0.00000197,0.0000112
 6\\\@


 SLITHERY-DITHERY
 FRIEDRICH A. KEKULE
 DREAMT ON A BUS OF THINGS
 FREUD WOULD THINK KEEN.
 MOST OF THE TIME THEY WERE
 HERPETOLOGICAL
 BITING THEIR TAILS IN THE
 SHAPE OF BENZENE.
 Job cpu time:       0 days  0 hours  3 minutes  2.7 seconds.
 Elapsed time:       0 days  0 hours  0 minutes 12.1 seconds.
 File lengths (MBytes):  RWF=     13 Int=      0 D2E=      0 Chk=      2 Scr=      1
 Normal termination of Gaussian 16 at Sun Nov 11 17:14:34 2018.
