 Entering Gaussian System, Link 0=g16
 Initial command:
 /cluster/chemistry/gaussian/g16/l1.exe "/scratch/js1212.15139/scratch/Gau-23294.inp" -scrdir="/scratch/js1212.15139/scratch/"
 Entering Link 1 = /cluster/chemistry/gaussian/g16/l1.exe PID=     23295.
  
 Copyright (c) 1988,1990,1992,1993,1995,1998,2003,2009,2016,
            Gaussian, Inc.  All Rights Reserved.
  
 This is part of the Gaussian(R) 16 program.  It is based on
 the Gaussian(R) 09 system (copyright 2009, Gaussian, Inc.),
 the Gaussian(R) 03 system (copyright 2003, Gaussian, Inc.),
 the Gaussian(R) 98 system (copyright 1998, Gaussian, Inc.),
 the Gaussian(R) 94 system (copyright 1995, Gaussian, Inc.),
 the Gaussian 92(TM) system (copyright 1992, Gaussian, Inc.),
 the Gaussian 90(TM) system (copyright 1990, Gaussian, Inc.),
 the Gaussian 88(TM) system (copyright 1988, Gaussian, Inc.),
 the Gaussian 86(TM) system (copyright 1986, Carnegie Mellon
 University), and the Gaussian 82(TM) system (copyright 1983,
 Carnegie Mellon University). Gaussian is a federally registered
 trademark of Gaussian, Inc.
  
 This software contains proprietary and confidential information,
 including trade secrets, belonging to Gaussian, Inc.
  
 This software is provided under written license and may be
 used, copied, transmitted, or stored only in accord with that
 written license.
  
 The following legend is applicable only to US Government
 contracts under FAR:
  
                    RESTRICTED RIGHTS LEGEND
  
 Use, reproduction and disclosure by the US Government is
 subject to restrictions as set forth in subparagraphs (a)
 and (c) of the Commercial Computer Software - Restricted
 Rights clause in FAR 52.227-19.
  
 Gaussian, Inc.
 340 Quinnipiac St., Bldg. 40, Wallingford CT 06492
  
  
 ---------------------------------------------------------------
 Warning -- This program may not be used in any manner that
 competes with the business of Gaussian, Inc. or will provide
 assistance to any competitor of Gaussian, Inc.  The licensee
 of this program is prohibited from giving any competitor of
 Gaussian, Inc. access to this program.  By using this program,
 the user acknowledges that Gaussian, Inc. is engaged in the
 business of creating and licensing software in the field of
 computational chemistry and represents and warrants to the
 licensee that it is not a competitor of Gaussian, Inc. and that
 it will not use this program in any manner prohibited above.
 ---------------------------------------------------------------
  

 Cite this work as:
 Gaussian 16, Revision A.03,
 M. J. Frisch, G. W. Trucks, H. B. Schlegel, G. E. Scuseria, 
 M. A. Robb, J. R. Cheeseman, G. Scalmani, V. Barone, 
 G. A. Petersson, H. Nakatsuji, X. Li, M. Caricato, A. V. Marenich, 
 J. Bloino, B. G. Janesko, R. Gomperts, B. Mennucci, H. P. Hratchian, 
 J. V. Ortiz, A. F. Izmaylov, J. L. Sonnenberg, D. Williams-Young, 
 F. Ding, F. Lipparini, F. Egidi, J. Goings, B. Peng, A. Petrone, 
 T. Henderson, D. Ranasinghe, V. G. Zakrzewski, J. Gao, N. Rega, 
 G. Zheng, W. Liang, M. Hada, M. Ehara, K. Toyota, R. Fukuda, 
 J. Hasegawa, M. Ishida, T. Nakajima, Y. Honda, O. Kitao, H. Nakai, 
 T. Vreven, K. Throssell, J. A. Montgomery, Jr., J. E. Peralta, 
 F. Ogliaro, M. J. Bearpark, J. J. Heyd, E. N. Brothers, K. N. Kudin, 
 V. N. Staroverov, T. A. Keith, R. Kobayashi, J. Normand, 
 K. Raghavachari, A. P. Rendell, J. C. Burant, S. S. Iyengar, 
 J. Tomasi, M. Cossi, J. M. Millam, M. Klene, C. Adamo, R. Cammi, 
 J. W. Ochterski, R. L. Martin, K. Morokuma, O. Farkas, 
 J. B. Foresman, and D. J. Fox, Gaussian, Inc., Wallingford CT, 2016.
 
 ******************************************
 Gaussian 16:  ES64L-G16RevA.03 25-Dec-2016
                11-Nov-2018 
 ******************************************
 %rwf=/scratch/js1212.15139/TMS-GPNMR-NoSpin.rwf
 %nosave
 %nprocshared=16
 Will use up to   16 processors via shared memory.
 %mem=3000MB
 %chk=/scratch/js1212.15139/TMS-GPOF.chk
 ----------------------------------------------------------------------
 # nmr pbe1pbe/cc-pVTZ EmpiricalDispersion=GD3BJ scrf=(SMD,solvent=wate
 r) geom=allcheck
 ----------------------------------------------------------------------
 1/29=7,38=1,172=1/1;
 2/12=2,40=1/2;
 3/5=16,6=1,11=2,14=-4,25=1,30=1,70=32201,72=1,74=-13,124=41/1,2,3,8;
 4//1;
 5/5=2,38=5,53=1/2;
 8/6=1,10=90,11=11/1;
 10/13=100,45=16/2;
 6/7=2,8=2,9=2,10=2,28=1/1;
 99/9=1/99;
 Structure from the checkpoint file:  "/scratch/js1212.15139/TMS-GPOF.chk"
 -------------------
 Title Card Required
 -------------------
 Charge =  0 Multiplicity = 1
 Redundant internal coordinates found in file.  (old form).
 Si,0,0.8208149734,0.8501248545,0.000019338
 C,0,2.7089148337,0.8501371502,-0.0000159031
 C,0,0.1914586376,0.2059056513,1.659469575
 C,0,0.1914536268,-0.2648875077,-1.3876342246
 C,0,0.1914446202,2.6093539518,-0.2718117196
 H,0,0.5434023648,3.2851191034,0.5244733055
 H,0,-0.9101716086,2.6413144441,-0.2767677051
 H,0,0.5434258947,3.0132615399,-1.2349168804
 H,0,3.1065798691,-0.1656565734,0.1569260451
 H,0,3.1066264925,1.4939459326,0.8012021246
 H,0,3.106606493,1.2221066945,-0.9581818239
 H,0,0.543426498,-0.8215725557,1.8465681339
 H,0,-0.9101617027,0.194202533,1.6895876
 H,0,0.5434009762,0.8380308736,2.490828479
 H,0,0.5433989187,-1.3009343666,-1.2559176368
 H,0,0.5434422402,0.0868617938,-2.3709872944
 H,0,-0.9101631276,-0.2851335191,-1.4128514131
 Recover connectivity data from disk.
                           ----------------------------
                           !    Current Parameters    !
                           ! (Angstroms and Degrees)  !
 --------------------------                            --------------------------
 ! Name  Definition              Value                                          !
 --------------------------------------------------------------------------------
 ! R1    R(1,2)                  1.8881                                         !
 ! R2    R(1,3)                  1.8881                                         !
 ! R3    R(1,4)                  1.8881                                         !
 ! R4    R(1,5)                  1.8881                                         !
 ! R5    R(2,9)                  1.1021                                         !
 ! R6    R(2,10)                 1.1021                                         !
 ! R7    R(2,11)                 1.1021                                         !
 ! R8    R(3,12)                 1.1021                                         !
 ! R9    R(3,13)                 1.1021                                         !
 ! R10   R(3,14)                 1.1021                                         !
 ! R11   R(4,15)                 1.1021                                         !
 ! R12   R(4,16)                 1.1021                                         !
 ! R13   R(4,17)                 1.1021                                         !
 ! R14   R(5,6)                  1.1021                                         !
 ! R15   R(5,7)                  1.1021                                         !
 ! R16   R(5,8)                  1.1021                                         !
 ! A1    A(2,1,3)              109.4721                                         !
 ! A2    A(2,1,4)              109.4704                                         !
 ! A3    A(2,1,5)              109.4709                                         !
 ! A4    A(3,1,4)              109.4718                                         !
 ! A5    A(3,1,5)              109.4717                                         !
 ! A6    A(4,1,5)              109.4704                                         !
 ! A7    A(1,2,9)              111.1505                                         !
 ! A8    A(1,2,10)             111.1529                                         !
 ! A9    A(1,2,11)             111.1537                                         !
 ! A10   A(9,2,10)             107.7394                                         !
 ! A11   A(9,2,11)             107.7393                                         !
 ! A12   A(10,2,11)            107.7384                                         !
 ! A13   A(1,3,12)             111.1529                                         !
 ! A14   A(1,3,13)             111.1511                                         !
 ! A15   A(1,3,14)             111.1524                                         !
 ! A16   A(12,3,13)            107.7394                                         !
 ! A17   A(12,3,14)            107.7395                                         !
 ! A18   A(13,3,14)            107.7389                                         !
 ! A19   A(1,4,15)             111.1538                                         !
 ! A20   A(1,4,16)             111.1507                                         !
 ! A21   A(1,4,17)             111.1525                                         !
 ! A22   A(15,4,16)            107.7392                                         !
 ! A23   A(15,4,17)            107.7383                                         !
 ! A24   A(16,4,17)            107.7396                                         !
 ! A25   A(1,5,6)              111.152                                          !
 ! A26   A(1,5,7)              111.1531                                         !
 ! A27   A(1,5,8)              111.1515                                         !
 ! A28   A(6,5,7)              107.7392                                         !
 ! A29   A(6,5,8)              107.7395                                         !
 ! A30   A(7,5,8)              107.7389                                         !
 ! D1    D(3,1,2,9)             59.9999                                         !
 ! D2    D(3,1,2,10)           -59.9997                                         !
 ! D3    D(3,1,2,11)           179.9999                                         !
 ! D4    D(4,1,2,9)            -60.0009                                         !
 ! D5    D(4,1,2,10)           179.9995                                         !
 ! D6    D(4,1,2,11)            59.9991                                         !
 ! D7    D(5,1,2,9)           -179.9992                                         !
 ! D8    D(5,1,2,10)            60.0013                                         !
 ! D9    D(5,1,2,11)           -59.9992                                         !
 ! D10   D(2,1,3,12)           -59.9994                                         !
 ! D11   D(2,1,3,13)          -179.9994                                         !
 ! D12   D(2,1,3,14)            60.0016                                         !
 ! D13   D(4,1,3,12)            60.0005                                         !
 ! D14   D(4,1,3,13)           -59.9994                                         !
 ! D15   D(4,1,3,14)          -179.9985                                         !
 ! D16   D(5,1,3,12)          -179.9999                                         !
 ! D17   D(5,1,3,13)            60.0002                                         !
 ! D18   D(5,1,3,14)           -59.9988                                         !
 ! D19   D(2,1,4,15)            60.0015                                         !
 ! D20   D(2,1,4,16)           -59.9985                                         !
 ! D21   D(2,1,4,17)          -179.9983                                         !
 ! D22   D(3,1,4,15)           -59.9995                                         !
 ! D23   D(3,1,4,16)          -179.9995                                         !
 ! D24   D(3,1,4,17)            60.0008                                         !
 ! D25   D(5,1,4,15)          -179.9999                                         !
 ! D26   D(5,1,4,16)            60.0001                                         !
 ! D27   D(5,1,4,17)           -59.9996                                         !
 ! D28   D(2,1,5,6)            -60.0016                                         !
 ! D29   D(2,1,5,7)            179.998                                          !
 ! D30   D(2,1,5,8)             59.9982                                         !
 ! D31   D(3,1,5,6)             59.9996                                         !
 ! D32   D(3,1,5,7)            -60.0008                                         !
 ! D33   D(3,1,5,8)            179.9994                                         !
 ! D34   D(4,1,5,6)           -179.9999                                         !
 ! D35   D(4,1,5,7)             59.9997                                         !
 ! D36   D(4,1,5,8)            -60.0001                                         !
 --------------------------------------------------------------------------------
                          Input orientation:                          
 ---------------------------------------------------------------------
 Center     Atomic      Atomic             Coordinates (Angstroms)
 Number     Number       Type             X           Y           Z
 ---------------------------------------------------------------------
      1         14           0        0.820815    0.850125    0.000019
      2          6           0        2.708915    0.850137   -0.000016
      3          6           0        0.191459    0.205906    1.659470
      4          6           0        0.191454   -0.264888   -1.387634
      5          6           0        0.191445    2.609354   -0.271812
      6          1           0        0.543402    3.285119    0.524473
      7          1           0       -0.910172    2.641314   -0.276768
      8          1           0        0.543426    3.013262   -1.234917
      9          1           0        3.106580   -0.165657    0.156926
     10          1           0        3.106626    1.493946    0.801202
     11          1           0        3.106606    1.222107   -0.958182
     12          1           0        0.543426   -0.821573    1.846568
     13          1           0       -0.910162    0.194203    1.689588
     14          1           0        0.543401    0.838031    2.490828
     15          1           0        0.543399   -1.300934   -1.255918
     16          1           0        0.543442    0.086862   -2.370987
     17          1           0       -0.910163   -0.285134   -1.412851
 ---------------------------------------------------------------------
                    Distance matrix (angstroms):
                    1          2          3          4          5
     1  Si   0.000000
     2  C    1.888100   0.000000
     3  C    1.888090   3.083263   0.000000
     4  C    1.888102   3.083241   3.083259   0.000000
     5  C    1.888091   3.083241   3.083247   3.083233   0.000000
     6  H    2.506234   3.300556   3.300551   4.047539   1.102090
     7  H    2.506249   4.047554   3.300579   3.300547   1.102091
     8  H    2.506227   3.300520   4.047543   3.300525   1.102091
     9  H    2.506223   1.102091   3.300550   3.300526   4.047532
    10  H    2.506259   1.102096   3.300587   4.047559   3.300573
    11  H    2.506265   1.102090   4.047573   3.300560   3.300565
    12  H    2.506244   3.300580   1.102088   3.300583   4.047552
    13  H    2.506223   4.047558   1.102094   3.300548   3.300542
    14  H    2.506239   3.300591   1.102090   4.047563   3.300551
    15  H    2.506271   3.300584   3.300593   1.102092   4.047554
    16  H    2.506228   3.300510   4.047548   1.102092   3.300516
    17  H    2.506252   4.047551   3.300583   1.102091   3.300541
                    6          7          8          9         10
     6  H    0.000000
     7  H    1.780267   0.000000
     8  H    1.780270   1.780264   0.000000
     9  H    4.314258   4.919499   4.314221   0.000000
    10  H    3.139267   4.314295   3.608891   1.780273   0.000000
    11  H    3.608920   4.314277   3.139222   1.780268   1.780261
    12  H    4.314261   4.314289   4.919502   3.139247   3.608935
    13  H    3.608892   3.139253   4.314248   4.314251   4.314296
    14  H    3.139235   3.608919   4.314256   3.608930   3.139297
    15  H    4.919520   4.314270   4.314247   3.139248   4.314306
    16  H    4.314226   3.608875   3.139183   3.608848   4.314231
    17  H    4.314254   3.139233   3.608877   4.314244   4.919528
                   11         12         13         14         15
    11  H    0.000000
    12  H    4.314295   0.000000
    13  H    4.919522   1.780270   0.000000
    14  H    4.314303   1.780268   1.780266   0.000000
    15  H    3.608936   3.139300   3.608916   4.314311   0.000000
    16  H    3.139206   4.314282   4.314250   4.919503   1.780269
    17  H    4.314271   3.608948   3.139250   4.314286   1.780259
                   16         17
    16  H    0.000000
    17  H    1.780273   0.000000
 Stoichiometry    C4H12Si
 Framework group  C1[X(C4H12Si)]
 Deg. of freedom    45
 Full point group                 C1      NOp   1
 Largest Abelian subgroup         C1      NOp   1
 Largest concise Abelian subgroup C1      NOp   1
                         Standard orientation:                         
 ---------------------------------------------------------------------
 Center     Atomic      Atomic             Coordinates (Angstroms)
 Number     Number       Type             X           Y           Z
 ---------------------------------------------------------------------
      1         14           0       -0.000013   -0.000006   -0.000001
      2          6           0        1.034425   -1.572190   -0.151981
      3          6           0       -1.787953   -0.374383   -0.477490
      4          6           0        0.695007    1.324478   -1.152225
      5          6           0        0.058534    0.622100    1.781696
      6          1           0       -0.341701   -0.131350    2.479355
      7          1           0       -0.537651    1.541196    1.901822
      8          1           0        1.091966    0.849547    2.089739
      9          1           0        1.019403   -1.959919   -1.183507
     10          1           0        0.651933   -2.365516    0.510550
     11          1           0        2.085573   -1.384587    0.120957
     12          1           0       -1.854234   -0.740389   -1.514912
     13          1           0       -2.417676    0.526620   -0.398407
     14          1           0       -2.221730   -1.145917    0.179150
     15          1           0        0.673841    0.989369   -2.201921
     16          1           0        1.739992    1.564665   -0.897423
     17          1           0        0.110378    2.256329   -1.085389
 ---------------------------------------------------------------------
 Rotational constants (GHZ):           3.0681252           3.0681020           3.0680905
 Standard basis: CC-pVTZ (5D, 7F)
 There are   359 symmetry adapted cartesian basis functions of A   symmetry.
 There are   322 symmetry adapted basis functions of A   symmetry.
   322 basis functions,   507 primitive gaussians,   359 cartesian basis functions
    25 alpha electrons       25 beta electrons
       nuclear repulsion energy       244.7256135794 Hartrees.
 NAtoms=   17 NActive=   17 NUniq=   17 SFac= 1.00D+00 NAtFMM=   60 NAOKFM=F Big=F
 Integral buffers will be    131072 words long.
 Raffenetti 2 integral format.
 Two-electron integral symmetry is turned on.
 Nuclear repulsion after empirical dispersion term =      244.7135493016 Hartrees.
 ------------------------------------------------------------------------------
 Polarizable Continuum Model (PCM)
 =================================
 Model                : PCM.
 Atomic radii         : SMD-Coulomb.
 Polarization charges : Total charges.
 Charge compensation  : None.
 Solution method      : On-the-fly selection.
 Cavity type          : VdW (van der Waals Surface) (Alpha=1.000).
 Cavity algorithm     : GePol (No added spheres)
                        Default sphere list used, NSphG=   17.
                        Lebedev-Laikov grids with approx.  5.0 points / Ang**2.
                        Smoothing algorithm: York/Karplus (Gamma=1.0000).
                        Polarization charges: spherical gaussians, with
                                              point-specific exponents (IZeta= 3).
                        Self-potential: point-specific (ISelfS= 7).
                        Self-field    : sphere-specific E.n sum rule (ISelfD= 2).
 Solvent              : Water, Eps=  78.355300 Eps(inf)=   1.777849
 ------------------------------------------------------------------------------
 Spheres list:
 ISph  on   Nord     Re0    Alpha      Xe            Ye            Ze
    1  Si      1    2.4700  1.000     -0.000013     -0.000006     -0.000001
    2   C      2    1.8500  1.000      1.034425     -1.572190     -0.151981
    3   C      3    1.8500  1.000     -1.787953     -0.374383     -0.477490
    4   C      4    1.8500  1.000      0.695007      1.324478     -1.152225
    5   C      5    1.8500  1.000      0.058534      0.622100      1.781696
    6   H      6    1.2000  1.000     -0.341701     -0.131350      2.479355
    7   H      7    1.2000  1.000     -0.537651      1.541196      1.901822
    8   H      8    1.2000  1.000      1.091966      0.849547      2.089739
    9   H      9    1.2000  1.000      1.019403     -1.959919     -1.183507
   10   H     10    1.2000  1.000      0.651933     -2.365516      0.510550
   11   H     11    1.2000  1.000      2.085573     -1.384587      0.120957
   12   H     12    1.2000  1.000     -1.854234     -0.740389     -1.514912
   13   H     13    1.2000  1.000     -2.417676      0.526620     -0.398407
   14   H     14    1.2000  1.000     -2.221730     -1.145917      0.179150
   15   H     15    1.2000  1.000      0.673841      0.989369     -2.201921
   16   H     16    1.2000  1.000      1.739992      1.564665     -0.897423
   17   H     17    1.2000  1.000      0.110378      2.256329     -1.085389
 ------------------------------------------------------------------------------
 ------------------------------------------------------------------------------
 Atomic radii for non-electrostatic terms: SMD-CDS.
 ------------------------------------------------------------------------------
 Nuclear repulsion after PCM non-electrostatic terms =      244.7225493132 Hartrees.
 One-electron integrals computed using PRISM.
 NBasis=   322 RedAO= T EigKep=  5.87D-04  NBF=   322
 NBsUse=   322 1.00D-06 EigRej= -1.00D+00 NBFU=   322
 ExpMin= 7.89D-02 ExpMax= 2.55D+05 ExpMxC= 2.46D+03 IAcc=3 IRadAn=         5 AccDes= 0.00D+00
 Harris functional with IExCor= 1009 and IRadAn=       5 diagonalized for initial guess.
 HarFok:  IExCor= 1009 AccDes= 0.00D+00 IRadAn=         5 IDoV= 1 UseB2=F ITyADJ=14
 ICtDFT=  3500011 ScaDFX=  1.000000  1.000000  1.000000  1.000000
 FoFCou: FMM=F IPFlag=           0 FMFlag=      100000 FMFlg1=           0
         NFxFlg=           0 DoJE=T BraDBF=F KetDBF=T FulRan=T
         wScrn=  0.000000 ICntrl=       500 IOpCl=  0 I1Cent=   200000004 NGrid=           0
         NMat0=    1 NMatS0=      1 NMatT0=    0 NMatD0=    1 NMtDS0=    0 NMtDT0=    0
 Petite list used in FoFCou.
 Requested convergence on RMS density matrix=1.00D-08 within 128 cycles.
 Requested convergence on MAX density matrix=1.00D-06.
 Requested convergence on             energy=1.00D-06.
 No special actions if energy rises.
 Inv3:  Mode=1 IEnd=     4465200.
 Iteration    1 A*A^-1 deviation from unit magnitude is 4.66D-15 for    524.
 Iteration    1 A*A^-1 deviation from orthogonality  is 1.85D-15 for    778    237.
 Iteration    1 A^-1*A deviation from unit magnitude is 4.66D-15 for    524.
 Iteration    1 A^-1*A deviation from orthogonality  is 1.28D-15 for   1188    620.
 Error on total polarization charges =  0.05131
 SCF Done:  E(RPBE1PBE) =  -448.938671179     A.U. after    9 cycles
            NFock=  9  Conv=0.28D-08     -V/T= 2.0048
 SMD-CDS (non-electrostatic) energy       (kcal/mol) =       5.65
 (included in total energy above)
 DoSCS=F DFT=T ScalE2(SS,OS)=  1.000000  1.000000
 Range of M.O.s used for correlation:     1   322
 NBasis=   322 NAE=    25 NBE=    25 NFC=     0 NFV=     0
 NROrb=    322 NOA=    25 NOB=    25 NVA=   297 NVB=   297

 **** Warning!!: The largest alpha MO coefficient is  0.18434238D+02

 NEqPCM:  Using equilibrium solvation (IEInf=0, Eps=  78.3553, EpsInf=   1.7778)
          Differentiating once with respect to magnetic field using GIAOs.
          Electric field/nuclear overlap derivatives assumed to be zero.
 FoFJK:  IHMeth= 1 ICntrl=    6127 DoSepK=F KAlg= 0 I1Cent=           0 FoldK=F
 IRaf=         1 NMat=       1 IRICut=       1 DoRegI=T DoRafI=F ISym2E= 0 IDoP0=0 IntGTp=1.
          There are     3 degrees of freedom in the 1st order CPHF.  IDoFFX=0 NUNeed=     3.
      3 vectors produced by pass  0 Test12= 2.48D-13 3.33D-08 XBig12= 3.47D+00 4.91D-01.
 AX will form     3 AO Fock derivatives at one time.
      3 vectors produced by pass  1 Test12= 2.48D-13 3.33D-08 XBig12= 3.42D-03 1.12D-02.
      3 vectors produced by pass  2 Test12= 2.48D-13 3.33D-08 XBig12= 4.09D-06 4.95D-04.
      3 vectors produced by pass  3 Test12= 2.48D-13 3.33D-08 XBig12= 5.01D-09 1.80D-05.
      3 vectors produced by pass  4 Test12= 2.48D-13 3.33D-08 XBig12= 1.05D-11 8.91D-07.
 InvSVY:  IOpt=1 It=  1 EMax= 2.22D-16
 Solved reduced A of dimension    15 with     3 vectors.
 Calculating GIAO nuclear magnetic shielding tensors.
 SCF GIAO Magnetic shielding tensor (ppm):
      1  Si   Isotropic =   359.3621   Anisotropy =     0.1596
   XX=   359.3613   YX=    -0.0529   ZX=     0.0548
   XY=    -0.0527   YY=   359.2920   ZY=     0.0035
   XZ=     0.0603   YZ=     0.0004   ZZ=   359.4329
   Eigenvalues:   359.2581   359.3596   359.4684
      2  C    Isotropic =   188.7357   Anisotropy =     7.9133
   XX=   188.4767   YX=    -3.6074   ZX=    -0.3507
   XY=    -3.6073   YY=   191.5871   ZY=     0.5255
   XZ=    -0.3497   YZ=     0.5308   ZZ=   186.1433
   Eigenvalues:   186.0919   186.1040   194.0113
      3  C    Isotropic =   188.7379   Anisotropy =     7.9191
   XX=   193.1996   YX=     1.4862   ZX=     1.8978
   XY=     1.4828   YY=   186.4123   ZY=     0.3984
   XZ=     1.8983   YZ=     0.3985   ZZ=   186.6018
   Eigenvalues:   186.0943   186.1021   194.0173
      4  C    Isotropic =   188.7355   Anisotropy =     7.9213
   XX=   187.1680   YX=     2.0467   ZX=    -1.7815
   XY=     2.0441   YY=   189.9927   ZY=    -3.3915
   XZ=    -1.7792   YZ=    -3.3894   ZZ=   189.0457
   Eigenvalues:   186.0941   186.0960   194.0163
      5  C    Isotropic =   188.7438   Anisotropy =     7.9084
   XX=   186.1142   YX=     0.0831   ZX=     0.2311
   XY=     0.0839   YY=   186.9666   ZY=     2.4602
   XZ=     0.2278   YZ=     2.4556   ZZ=   193.1507
   Eigenvalues:   186.1043   186.1111   194.0161
      6  H    Isotropic =    31.2155   Anisotropy =     9.7189
   XX=    28.3321   YX=     1.9103   ZX=    -2.2816
   XY=     1.8634   YY=    30.7294   ZY=    -3.3839
   XZ=    -2.4555   YZ=    -3.7936   ZZ=    34.5850
   Eigenvalues:    27.2582    28.6935    37.6948
      7  H    Isotropic =    31.2163   Anisotropy =     9.7183
   XX=    29.6650   YX=    -3.9536   ZX=    -1.0990
   XY=    -4.0511   YY=    34.2137   ZY=     2.6032
   XZ=    -1.3446   YZ=     2.9628   ZZ=    29.7703
   Eigenvalues:    27.2587    28.6951    37.6952
      8  H    Isotropic =    31.2152   Anisotropy =     9.7196
   XX=    34.7329   YX=     2.0712   ZX=     3.4613
   XY=     2.2160   YY=    28.0833   ZY=     1.6391
   XZ=     3.8808   YZ=     1.6883   ZZ=    30.8294
   Eigenvalues:    27.2576    28.6930    37.6949
      9  H    Isotropic =    31.2148   Anisotropy =     9.7186
   XX=    27.9393   YX=    -1.3636   ZX=    -0.9214
   XY=    -1.2657   YY=    30.8419   ZY=     4.3679
   XZ=    -0.6756   YZ=     4.0092   ZZ=    34.8633
   Eigenvalues:    27.2568    28.6939    37.6939
     10  H    Isotropic =    31.2165   Anisotropy =     9.7189
   XX=    28.3774   YX=     0.6984   ZX=    -1.2213
   XY=     1.0256   YY=    35.1167   ZY=    -4.3030
   XZ=    -1.3657   YZ=    -4.0361   ZZ=    30.1556
   Eigenvalues:    27.2597    28.6941    37.6958
     11  H    Isotropic =    31.2157   Anisotropy =     9.7189
   XX=    37.2386   YX=    -0.5944   ZX=     2.0220
   XY=    -1.0194   YY=    28.6819   ZY=     0.1195
   XZ=     1.9205   YZ=     0.2118   ZZ=    27.7267
   Eigenvalues:    27.2594    28.6928    37.6950
     12  H    Isotropic =    31.2157   Anisotropy =     9.7191
   XX=    29.5706   YX=     1.1926   ZX=     2.6688
   XY=     1.0475   YY=    28.4828   ZY=     3.1918
   XZ=     2.2489   YZ=     3.1426   ZZ=    35.5937
   Eigenvalues:    27.2577    28.6943    37.6951
     13  H    Isotropic =    31.2157   Anisotropy =     9.7189
   XX=    33.7997   YX=    -4.7308   ZX=     0.2869
   XY=    -4.3058   YY=    32.4524   ZY=     0.3092
   XZ=     0.3886   YZ=     0.2169   ZZ=    27.3950
   Eigenvalues:    27.2587    28.6934    37.6950
     14  H    Isotropic =    31.2161   Anisotropy =     9.7187
   XX=    31.8320   YX=     4.0561   ZX=    -2.2941
   XY=     3.7764   YY=    31.9007   ZY=    -3.3617
   XZ=    -1.9768   YZ=    -3.2211   ZZ=    29.9155
   Eigenvalues:    27.2583    28.6947    37.6952
     15  H    Isotropic =    31.2156   Anisotropy =     9.7183
   XX=    27.5571   YX=     0.4341   ZX=    -0.9920
   XY=     0.4812   YY=    28.5192   ZY=     0.4658
   XZ=    -0.8175   YZ=     0.8751   ZZ=    37.5703
   Eigenvalues:    27.2585    28.6937    37.6944
     16  H    Isotropic =    31.2159   Anisotropy =     9.7182
   XX=    36.2183   YX=     3.3700   ZX=     0.6974
   XY=     3.6499   YY=    29.2909   ZY=    -0.4645
   XZ=     0.3799   YZ=    -0.6062   ZZ=    28.1384
   Eigenvalues:    27.2585    28.6944    37.6947
     17  H    Isotropic =    31.2157   Anisotropy =     9.7191
   XX=    29.3249   YX=    -3.0915   ZX=    -0.3255
   XY=    -3.4189   YY=    36.2752   ZY=    -1.1829
   XZ=    -0.1811   YZ=    -1.4503   ZZ=    28.0469
   Eigenvalues:    27.2588    28.6932    37.6951
 End of Minotr F.D. properties file   721 does not exist.
 End of Minotr F.D. properties file   722 does not exist.
 End of Minotr F.D. properties file   788 does not exist.

 **********************************************************************

            Population analysis using the SCF density.

 **********************************************************************

 Orbital symmetries:
       Occupied  (A) (A) (A) (A) (A) (A) (A) (A) (A) (A) (A) (A)
                 (A) (A) (A) (A) (A) (A) (A) (A) (A) (A) (A) (A)
                 (A)
       Virtual   (A) (A) (A) (A) (A) (A) (A) (A) (A) (A) (A) (A)
                 (A) (A) (A) (A) (A) (A) (A) (A) (A) (A) (A) (A)
                 (A) (A) (A) (A) (A) (A) (A) (A) (A) (A) (A) (A)
                 (A) (A) (A) (A) (A) (A) (A) (A) (A) (A) (A) (A)
                 (A) (A) (A) (A) (A) (A) (A) (A) (A) (A) (A) (A)
                 (A) (A) (A) (A) (A) (A) (A) (A) (A) (A) (A) (A)
                 (A) (A) (A) (A) (A) (A) (A) (A) (A) (A) (A) (A)
                 (A) (A) (A) (A) (A) (A) (A) (A) (A) (A) (A) (A)
                 (A) (A) (A) (A) (A) (A) (A) (A) (A) (A) (A) (A)
                 (A) (A) (A) (A) (A) (A) (A) (A) (A) (A) (A) (A)
                 (A) (A) (A) (A) (A) (A) (A) (A) (A) (A) (A) (A)
                 (A) (A) (A) (A) (A) (A) (A) (A) (A) (A) (A) (A)
                 (A) (A) (A) (A) (A) (A) (A) (A) (A) (A) (A) (A)
                 (A) (A) (A) (A) (A) (A) (A) (A) (A) (A) (A) (A)
                 (A) (A) (A) (A) (A) (A) (A) (A) (A) (A) (A) (A)
                 (A) (A) (A) (A) (A) (A) (A) (A) (A) (A) (A) (A)
                 (A) (A) (A) (A) (A) (A) (A) (A) (A) (A) (A) (A)
                 (A) (A) (A) (A) (A) (A) (A) (A) (A) (A) (A) (A)
                 (A) (A) (A) (A) (A) (A) (A) (A) (A) (A) (A) (A)
                 (A) (A) (A) (A) (A) (A) (A) (A) (A) (A) (A) (A)
                 (A) (A) (A) (A) (A) (A) (A) (A) (A) (A) (A) (A)
                 (A) (A) (A) (A) (A) (A) (A) (A) (A) (A) (A) (A)
                 (A) (A) (A) (A) (A) (A) (A) (A) (A) (A) (A) (A)
                 (A) (A) (A) (A) (A) (A) (A) (A) (A) (A) (A) (A)
                 (A) (A) (A) (A) (A) (A) (A) (A) (A)
 The electronic state is 1-A.
 Alpha  occ. eigenvalues --  -66.22893 -10.19105 -10.19104 -10.19104 -10.19103
 Alpha  occ. eigenvalues --   -5.29600  -3.62991  -3.62991  -3.62991  -0.73025
 Alpha  occ. eigenvalues --   -0.68549  -0.68549  -0.68548  -0.46182  -0.41466
 Alpha  occ. eigenvalues --   -0.41466  -0.41465  -0.39867  -0.39866  -0.38014
 Alpha  occ. eigenvalues --   -0.38013  -0.38013  -0.29809  -0.29808  -0.29808
 Alpha virt. eigenvalues --    0.04088   0.08704   0.08705   0.08705   0.10452
 Alpha virt. eigenvalues --    0.10453   0.10453   0.13708   0.13709   0.15500
 Alpha virt. eigenvalues --    0.15501   0.15502   0.16703   0.16703   0.16703
 Alpha virt. eigenvalues --    0.18712   0.21885   0.21886   0.27647   0.27647
 Alpha virt. eigenvalues --    0.27648   0.31456   0.31457   0.31457   0.34240
 Alpha virt. eigenvalues --    0.38972   0.38972   0.40480   0.40480   0.40481
 Alpha virt. eigenvalues --    0.41886   0.41887   0.41887   0.44343   0.47752
 Alpha virt. eigenvalues --    0.47753   0.47753   0.47966   0.47966   0.47967
 Alpha virt. eigenvalues --    0.51439   0.51439   0.51440   0.53026   0.53026
 Alpha virt. eigenvalues --    0.53133   0.60324   0.65555   0.65555   0.65556
 Alpha virt. eigenvalues --    0.65884   0.65885   0.65885   0.74938   0.74938
 Alpha virt. eigenvalues --    0.74938   0.78772   0.78772   0.88725   0.88726
 Alpha virt. eigenvalues --    0.88727   0.91988   0.91988   0.91989   0.92325
 Alpha virt. eigenvalues --    1.01047   1.01047   1.01048   1.01782   1.01783
 Alpha virt. eigenvalues --    1.03986   1.03986   1.03986   1.04421   1.04422
 Alpha virt. eigenvalues --    1.04422   1.14923   1.14924   1.15108   1.17157
 Alpha virt. eigenvalues --    1.17157   1.17158   1.18006   1.18006   1.18007
 Alpha virt. eigenvalues --    1.23212   1.23213   1.23213   1.29772   1.29772
 Alpha virt. eigenvalues --    1.29773   1.29861   1.29861   1.33269   1.33270
 Alpha virt. eigenvalues --    1.33270   1.37274   1.37593   1.37594   1.37594
 Alpha virt. eigenvalues --    1.40724   1.40724   1.40725   1.49923   1.50954
 Alpha virt. eigenvalues --    1.50955   1.52386   1.52387   1.52387   1.59751
 Alpha virt. eigenvalues --    1.60368   1.60369   1.60369   1.65474   1.65475
 Alpha virt. eigenvalues --    1.65475   1.66057   1.66058   1.67169   1.67170
 Alpha virt. eigenvalues --    1.67170   2.13819   2.13819   2.25038   2.33578
 Alpha virt. eigenvalues --    2.33579   2.33579   2.42075   2.42076   2.42076
 Alpha virt. eigenvalues --    2.44769   2.44769   2.44771   2.46176   2.60639
 Alpha virt. eigenvalues --    2.60639   2.60639   2.70646   2.70646   2.70646
 Alpha virt. eigenvalues --    2.76216   2.76216   2.80007   2.81402   2.81403
 Alpha virt. eigenvalues --    2.81403   2.82168   2.82168   2.82169   2.83095
 Alpha virt. eigenvalues --    2.87799   2.87799   2.87799   2.98153   2.98154
 Alpha virt. eigenvalues --    3.00803   3.00804   3.00804   3.04165   3.04166
 Alpha virt. eigenvalues --    3.04166   3.06668   3.06668   3.06669   3.10771
 Alpha virt. eigenvalues --    3.10772   3.10773   3.12421   3.12421   3.15055
 Alpha virt. eigenvalues --    3.15055   3.15056   3.21202   3.21202   3.22146
 Alpha virt. eigenvalues --    3.22147   3.22147   3.34496   3.35057   3.35057
 Alpha virt. eigenvalues --    3.35058   3.37841   3.37958   3.37958   3.37958
 Alpha virt. eigenvalues --    3.44831   3.44831   3.44831   3.47218   3.47218
 Alpha virt. eigenvalues --    3.47906   3.51118   3.51119   3.51119   3.51558
 Alpha virt. eigenvalues --    3.51558   3.51559   3.56103   3.56104   3.56104
 Alpha virt. eigenvalues --    3.67534   3.67534   3.69769   3.69769   3.69770
 Alpha virt. eigenvalues --    3.71259   3.71259   3.71260   3.82326   3.82327
 Alpha virt. eigenvalues --    3.82327   3.85425   3.85425   3.87288   3.87289
 Alpha virt. eigenvalues --    3.87289   3.91955   3.91955   3.91956   3.99794
 Alpha virt. eigenvalues --    3.99795   4.01258   4.02067   4.02067   4.02068
 Alpha virt. eigenvalues --    4.08728   4.08729   4.08729   4.12006   4.12006
 Alpha virt. eigenvalues --    4.12007   4.12864   4.12865   4.12865   4.13935
 Alpha virt. eigenvalues --    4.15002   4.15003   4.23242   4.23486   4.23487
 Alpha virt. eigenvalues --    4.23487   4.27474   4.30672   4.30672   4.30673
 Alpha virt. eigenvalues --    4.57540   4.57540   4.57542   4.68508   4.68508
 Alpha virt. eigenvalues --    4.68509   4.74192   4.74192   4.74192   4.74885
 Alpha virt. eigenvalues --    4.74885   4.87829   4.91402   4.91403   4.91404
 Alpha virt. eigenvalues --    5.05154   5.07268   5.07269   5.07270   5.08836
 Alpha virt. eigenvalues --    5.08836   5.10701   5.10701   5.10702   5.12681
 Alpha virt. eigenvalues --    5.12681   5.12682   5.16524   5.24831   5.24832
 Alpha virt. eigenvalues --    5.26131   5.26132   5.26132   5.30788   5.34962
 Alpha virt. eigenvalues --    5.34962   5.34963   5.37866   5.37867   5.37867
 Alpha virt. eigenvalues --    5.89752   5.89752   5.91282   5.91283   5.91283
 Alpha virt. eigenvalues --    5.91747   5.91748   5.91748  12.53113  12.60082
 Alpha virt. eigenvalues --   12.60085  12.60087
          Condensed to atoms (all electrons):
               1          2          3          4          5          6
     1  Si  12.219765   0.423718   0.423710   0.423695   0.423757  -0.027878
     2  C    0.423718   4.899828  -0.022262  -0.022270  -0.022273   0.000143
     3  C    0.423710  -0.022262   4.899887  -0.022266  -0.022271   0.000143
     4  C    0.423695  -0.022270  -0.022266   4.899857  -0.022269   0.002271
     5  C    0.423757  -0.022273  -0.022271  -0.022269   4.899765   0.387774
     6  H   -0.027878   0.000143   0.000143   0.002271   0.387774   0.574373
     7  H   -0.027904   0.002272   0.000146   0.000145   0.387801  -0.022953
     8  H   -0.027908   0.000144   0.002271   0.000145   0.387798  -0.022939
     9  H   -0.027921   0.387809   0.000148   0.000146   0.002271  -0.000098
    10  H   -0.027877   0.387776   0.000143   0.002271   0.000143   0.000886
    11  H   -0.027887   0.387789   0.002270   0.000144   0.000144   0.000121
    12  H   -0.027905   0.000144   0.387790   0.000143   0.002271  -0.000098
    13  H   -0.027900   0.002271   0.387787   0.000145   0.000145   0.000121
    14  H   -0.027904   0.000145   0.387808   0.002271   0.000145   0.000886
    15  H   -0.027912   0.000146   0.000145   0.387810   0.002271  -0.000155
    16  H   -0.027892   0.000143   0.002271   0.387781   0.000143  -0.000098
    17  H   -0.027918   0.002272   0.000146   0.387806   0.000146  -0.000098
               7          8          9         10         11         12
     1  Si  -0.027904  -0.027908  -0.027921  -0.027877  -0.027887  -0.027905
     2  C    0.002272   0.000144   0.387809   0.387776   0.387789   0.000144
     3  C    0.000146   0.002271   0.000148   0.000143   0.002270   0.387790
     4  C    0.000145   0.000145   0.000146   0.002271   0.000144   0.000143
     5  C    0.387801   0.387798   0.002271   0.000143   0.000144   0.002271
     6  H   -0.022953  -0.022939  -0.000098   0.000886   0.000121  -0.000098
     7  H    0.574438  -0.022946  -0.000155  -0.000098  -0.000098  -0.000098
     8  H   -0.022946   0.574339  -0.000098   0.000121   0.000886  -0.000155
     9  H   -0.000155  -0.000098   0.574377  -0.022953  -0.022945   0.000886
    10  H   -0.000098   0.000121  -0.022953   0.574439  -0.022949   0.000122
    11  H   -0.000098   0.000886  -0.022945  -0.022949   0.574371  -0.000098
    12  H   -0.000098  -0.000155   0.000886   0.000122  -0.000098   0.574359
    13  H    0.000886  -0.000098  -0.000098  -0.000098  -0.000155  -0.022930
    14  H    0.000122  -0.000098   0.000122   0.000886  -0.000098  -0.022951
    15  H   -0.000098  -0.000098   0.000886  -0.000098   0.000121   0.000886
    16  H    0.000121   0.000886   0.000121  -0.000098   0.000886  -0.000098
    17  H    0.000886   0.000122  -0.000098  -0.000155  -0.000098   0.000121
              13         14         15         16         17
     1  Si  -0.027900  -0.027904  -0.027912  -0.027892  -0.027918
     2  C    0.002271   0.000145   0.000146   0.000143   0.002272
     3  C    0.387787   0.387808   0.000145   0.002271   0.000146
     4  C    0.000145   0.002271   0.387810   0.387781   0.387806
     5  C    0.000145   0.000145   0.002271   0.000143   0.000146
     6  H    0.000121   0.000886  -0.000155  -0.000098  -0.000098
     7  H    0.000886   0.000122  -0.000098   0.000121   0.000886
     8  H   -0.000098  -0.000098  -0.000098   0.000886   0.000122
     9  H   -0.000098   0.000122   0.000886   0.000121  -0.000098
    10  H   -0.000098   0.000886  -0.000098  -0.000098  -0.000155
    11  H   -0.000155  -0.000098   0.000121   0.000886  -0.000098
    12  H   -0.022930  -0.022951   0.000886  -0.000098   0.000121
    13  H    0.574349  -0.022950   0.000121  -0.000098   0.000886
    14  H   -0.022950   0.574369  -0.000098  -0.000155  -0.000098
    15  H    0.000121  -0.000098   0.574398  -0.022944  -0.022942
    16  H   -0.000098  -0.000155  -0.022944   0.574382  -0.022948
    17  H    0.000886  -0.000098  -0.022942  -0.022948   0.574372
 Mulliken charges:
               1
     1  Si   0.420160
     2  C   -0.427794
     3  C   -0.427867
     4  C   -0.427826
     5  C   -0.427759
     6  H    0.107600
     7  H    0.107535
     8  H    0.107628
     9  H    0.107601
    10  H    0.107542
    11  H    0.107598
    12  H    0.107610
    13  H    0.107616
    14  H    0.107599
    15  H    0.107560
    16  H    0.107598
    17  H    0.107599
 Sum of Mulliken charges =  -0.00000
 Mulliken charges with hydrogens summed into heavy atoms:
               1
     1  Si   0.420160
     2  C   -0.105053
     3  C   -0.105042
     4  C   -0.105069
     5  C   -0.104996
 Electronic spatial extent (au):  <R**2>=            668.9597
 Charge=             -0.0000 electrons
 Dipole moment (field-independent basis, Debye):
    X=             -0.0001    Y=              0.0002    Z=             -0.0007  Tot=              0.0007
 Quadrupole moment (field-independent basis, Debye-Ang):
   XX=            -42.2602   YY=            -42.2612   ZZ=            -42.2594
   XY=             -0.0001   XZ=              0.0005   YZ=              0.0005
 Traceless Quadrupole moment (field-independent basis, Debye-Ang):
   XX=              0.0001   YY=             -0.0009   ZZ=              0.0008
   XY=             -0.0001   XZ=              0.0005   YZ=              0.0005
 Octapole moment (field-independent basis, Debye-Ang**2):
  XXX=              5.1888  YYY=              1.6701  ZZZ=             -4.8740  XYY=             -4.3083
  XXY=              2.7168  XXZ=              2.7186  XZZ=             -0.8798  YZZ=             -4.3857
  YYZ=              2.1522  XYZ=              1.2978
 Hexadecapole moment (field-independent basis, Debye-Ang**3):
 XXXX=           -326.1134 YYYY=           -325.8171 ZZZZ=           -326.1417 XXXY=             -0.1141
 XXXZ=             -0.2889 YYYX=              0.3072 YYYZ=              0.2186 ZZZX=              0.0746
 ZZZY=             -0.2051 XXYY=           -108.7150 XXZZ=           -108.3737 YYZZ=           -108.6739
 XXYZ=             -0.0120 YYXZ=              0.2192 ZZXY=             -0.1933
 N-N= 2.447225493132D+02 E-N=-1.547578687315D+03  KE= 4.468080846088D+02
 1\1\GINC-NODE062\SP\RPBE1PBE\CC-pVTZ\C4H12Si1\JS1212\11-Nov-2018\0\\# 
 nmr pbe1pbe/cc-pVTZ EmpiricalDispersion=GD3BJ scrf=(SMD,solvent=water)
  geom=allcheck\\Title Card Required\\0,1\Si,0,0.8208149734,0.850124854
 5,0.000019338\C,0,2.7089148337,0.8501371502,-0.0000159031\C,0,0.191458
 6376,0.2059056513,1.659469575\C,0,0.1914536268,-0.2648875077,-1.387634
 2246\C,0,0.1914446202,2.6093539518,-0.2718117196\H,0,0.5434023648,3.28
 51191034,0.5244733055\H,0,-0.9101716086,2.6413144441,-0.2767677051\H,0
 ,0.5434258947,3.0132615399,-1.2349168804\H,0,3.1065798691,-0.165656573
 4,0.1569260451\H,0,3.1066264925,1.4939459326,0.8012021246\H,0,3.106606
 493,1.2221066945,-0.9581818239\H,0,0.543426498,-0.8215725557,1.8465681
 339\H,0,-0.9101617027,0.194202533,1.6895876\H,0,0.5434009762,0.8380308
 736,2.490828479\H,0,0.5433989187,-1.3009343666,-1.2559176368\H,0,0.543
 4422402,0.0868617938,-2.3709872944\H,0,-0.9101631276,-0.2851335191,-1.
 4128514131\\Version=ES64L-G16RevA.03\State=1-A\HF=-448.9386712\RMSD=2.
 797e-09\Dipole=-0.0000623,-0.0002727,-0.0000476\Quadrupole=-0.0003804,
 0.0006732,-0.0002928,-0.0001211,-0.0003558,-0.0004797\PG=C01 [X(C4H12S
 i1)]\\@


 THERE'S SMALL CHOICE IN A BOWL OF ROTTEN APPLES.
                     SHAKESPEARE
 Job cpu time:       0 days  0 hours 19 minutes 13.4 seconds.
 Elapsed time:       0 days  0 hours  1 minutes 17.2 seconds.
 File lengths (MBytes):  RWF=     88 Int=      0 D2E=      0 Chk=     20 Scr=      1
 Normal termination of Gaussian 16 at Sun Nov 11 14:06:11 2018.
