 Entering Gaussian System, Link 0=g16
 Initial command:
 /cluster/chemistry/gaussian/g16/l1.exe "/scratch/js1212.15076/scratch/Gau-27360.inp" -scrdir="/scratch/js1212.15076/scratch/"
 Entering Link 1 = /cluster/chemistry/gaussian/g16/l1.exe PID=     27362.
  
 Copyright (c) 1988,1990,1992,1993,1995,1998,2003,2009,2016,
            Gaussian, Inc.  All Rights Reserved.
  
 This is part of the Gaussian(R) 16 program.  It is based on
 the Gaussian(R) 09 system (copyright 2009, Gaussian, Inc.),
 the Gaussian(R) 03 system (copyright 2003, Gaussian, Inc.),
 the Gaussian(R) 98 system (copyright 1998, Gaussian, Inc.),
 the Gaussian(R) 94 system (copyright 1995, Gaussian, Inc.),
 the Gaussian 92(TM) system (copyright 1992, Gaussian, Inc.),
 the Gaussian 90(TM) system (copyright 1990, Gaussian, Inc.),
 the Gaussian 88(TM) system (copyright 1988, Gaussian, Inc.),
 the Gaussian 86(TM) system (copyright 1986, Carnegie Mellon
 University), and the Gaussian 82(TM) system (copyright 1983,
 Carnegie Mellon University). Gaussian is a federally registered
 trademark of Gaussian, Inc.
  
 This software contains proprietary and confidential information,
 including trade secrets, belonging to Gaussian, Inc.
  
 This software is provided under written license and may be
 used, copied, transmitted, or stored only in accord with that
 written license.
  
 The following legend is applicable only to US Government
 contracts under FAR:
  
                    RESTRICTED RIGHTS LEGEND
  
 Use, reproduction and disclosure by the US Government is
 subject to restrictions as set forth in subparagraphs (a)
 and (c) of the Commercial Computer Software - Restricted
 Rights clause in FAR 52.227-19.
  
 Gaussian, Inc.
 340 Quinnipiac St., Bldg. 40, Wallingford CT 06492
  
  
 ---------------------------------------------------------------
 Warning -- This program may not be used in any manner that
 competes with the business of Gaussian, Inc. or will provide
 assistance to any competitor of Gaussian, Inc.  The licensee
 of this program is prohibited from giving any competitor of
 Gaussian, Inc. access to this program.  By using this program,
 the user acknowledges that Gaussian, Inc. is engaged in the
 business of creating and licensing software in the field of
 computational chemistry and represents and warrants to the
 licensee that it is not a competitor of Gaussian, Inc. and that
 it will not use this program in any manner prohibited above.
 ---------------------------------------------------------------
  

 Cite this work as:
 Gaussian 16, Revision A.03,
 M. J. Frisch, G. W. Trucks, H. B. Schlegel, G. E. Scuseria, 
 M. A. Robb, J. R. Cheeseman, G. Scalmani, V. Barone, 
 G. A. Petersson, H. Nakatsuji, X. Li, M. Caricato, A. V. Marenich, 
 J. Bloino, B. G. Janesko, R. Gomperts, B. Mennucci, H. P. Hratchian, 
 J. V. Ortiz, A. F. Izmaylov, J. L. Sonnenberg, D. Williams-Young, 
 F. Ding, F. Lipparini, F. Egidi, J. Goings, B. Peng, A. Petrone, 
 T. Henderson, D. Ranasinghe, V. G. Zakrzewski, J. Gao, N. Rega, 
 G. Zheng, W. Liang, M. Hada, M. Ehara, K. Toyota, R. Fukuda, 
 J. Hasegawa, M. Ishida, T. Nakajima, Y. Honda, O. Kitao, H. Nakai, 
 T. Vreven, K. Throssell, J. A. Montgomery, Jr., J. E. Peralta, 
 F. Ogliaro, M. J. Bearpark, J. J. Heyd, E. N. Brothers, K. N. Kudin, 
 V. N. Staroverov, T. A. Keith, R. Kobayashi, J. Normand, 
 K. Raghavachari, A. P. Rendell, J. C. Burant, S. S. Iyengar, 
 J. Tomasi, M. Cossi, J. M. Millam, M. Klene, C. Adamo, R. Cammi, 
 J. W. Ochterski, R. L. Martin, K. Morokuma, O. Farkas, 
 J. B. Foresman, and D. J. Fox, Gaussian, Inc., Wallingford CT, 2016.
 
 ******************************************
 Gaussian 16:  ES64L-G16RevA.03 25-Dec-2016
                10-Nov-2018 
 ******************************************
 %rwf=/scratch/js1212.15076/TMS-GPOF.rwf
 %nosave
 %nprocshared=16
 Will use up to   16 processors via shared memory.
 %mem=3000MB
 %chk=/scratch/js1212.15076/TMS-GPOF.chk
 ----------------------------------------------------
 # opt freq pbe1pbe/cc-pVDZ EmpiricalDispersion=GD3BJ
 ----------------------------------------------------
 1/18=20,19=15,26=3,38=1/1,3;
 2/9=110,12=2,17=6,18=5,40=1/2;
 3/5=16,11=2,25=1,30=1,71=1,74=-13,124=41/1,2,3;
 4//1;
 5/5=2,38=5/2;
 6/7=2,8=2,9=2,10=2,28=1/1;
 7//1,2,3,16;
 1/18=20,19=15,26=3/3(2);
 2/9=110/2;
 99//99;
 2/9=110/2;
 3/5=16,11=2,25=1,30=1,71=1,74=-13,124=41/1,2,3;
 4/5=5,16=3,69=1/1;
 5/5=2,38=5/2;
 7//1,2,3,16;
 1/18=20,19=15,26=3/3(-5);
 2/9=110/2;
 6/7=2,8=2,9=2,10=2,19=2,28=1/1;
 99/9=1/99;
 -------------------
 Title Card Required
 -------------------
 Symbolic Z-matrix:
 Charge =  0 Multiplicity = 1
 Si                    0.82082   0.85013   0. 
 C                     2.24082   0.85013   0. 
 C                     0.34749   0.36562   1.24804 
 C                     0.34748   0.01155  -1.04362 
 C                     0.34748   2.17322  -0.20443 
 H                     0.70415   2.80511   0.58196 
 H                    -0.72252   2.17322  -0.20443 
 H                     0.70414   2.5383   -1.14486 
 H                     2.59748  -0.14685   0.15404 
 H                     2.59749   1.48202   0.78639 
 H                     2.59749   1.21521  -0.94043 
 H                     0.70416  -0.63135   1.40208 
 H                    -0.72251   0.36562   1.24805 
 H                     0.70415   0.99751   2.03443 
 H                     0.70415  -0.98543  -0.88957 
 H                     0.70415   0.37663  -1.98404 
 H                    -0.72252   0.01154  -1.04362 
 

 GradGradGradGradGradGradGradGradGradGradGradGradGradGradGradGradGradGrad
 Berny optimization.
 Initialization pass.
                           ----------------------------
                           !    Initial Parameters    !
                           ! (Angstroms and Degrees)  !
 --------------------------                            --------------------------
 ! Name  Definition              Value          Derivative Info.                !
 --------------------------------------------------------------------------------
 ! R1    R(1,2)                  1.42           estimate D2E/DX2                !
 ! R2    R(1,3)                  1.42           estimate D2E/DX2                !
 ! R3    R(1,4)                  1.42           estimate D2E/DX2                !
 ! R4    R(1,5)                  1.42           estimate D2E/DX2                !
 ! R5    R(2,9)                  1.07           estimate D2E/DX2                !
 ! R6    R(2,10)                 1.07           estimate D2E/DX2                !
 ! R7    R(2,11)                 1.07           estimate D2E/DX2                !
 ! R8    R(3,12)                 1.07           estimate D2E/DX2                !
 ! R9    R(3,13)                 1.07           estimate D2E/DX2                !
 ! R10   R(3,14)                 1.07           estimate D2E/DX2                !
 ! R11   R(4,15)                 1.07           estimate D2E/DX2                !
 ! R12   R(4,16)                 1.07           estimate D2E/DX2                !
 ! R13   R(4,17)                 1.07           estimate D2E/DX2                !
 ! R14   R(5,6)                  1.07           estimate D2E/DX2                !
 ! R15   R(5,7)                  1.07           estimate D2E/DX2                !
 ! R16   R(5,8)                  1.07           estimate D2E/DX2                !
 ! A1    A(2,1,3)              109.4711         estimate D2E/DX2                !
 ! A2    A(2,1,4)              109.4715         estimate D2E/DX2                !
 ! A3    A(2,1,5)              109.4715         estimate D2E/DX2                !
 ! A4    A(3,1,4)              109.4712         estimate D2E/DX2                !
 ! A5    A(3,1,5)              109.4714         estimate D2E/DX2                !
 ! A6    A(4,1,5)              109.4707         estimate D2E/DX2                !
 ! A7    A(1,2,9)              109.4708         estimate D2E/DX2                !
 ! A8    A(1,2,10)             109.4713         estimate D2E/DX2                !
 ! A9    A(1,2,11)             109.4714         estimate D2E/DX2                !
 ! A10   A(9,2,10)             109.4713         estimate D2E/DX2                !
 ! A11   A(9,2,11)             109.471          estimate D2E/DX2                !
 ! A12   A(10,2,11)            109.4715         estimate D2E/DX2                !
 ! A13   A(1,3,12)             109.4714         estimate D2E/DX2                !
 ! A14   A(1,3,13)             109.4716         estimate D2E/DX2                !
 ! A15   A(1,3,14)             109.4714         estimate D2E/DX2                !
 ! A16   A(12,3,13)            109.4714         estimate D2E/DX2                !
 ! A17   A(12,3,14)            109.4711         estimate D2E/DX2                !
 ! A18   A(13,3,14)            109.4704         estimate D2E/DX2                !
 ! A19   A(1,4,15)             109.4704         estimate D2E/DX2                !
 ! A20   A(1,4,16)             109.4713         estimate D2E/DX2                !
 ! A21   A(1,4,17)             109.4718         estimate D2E/DX2                !
 ! A22   A(15,4,16)            109.4713         estimate D2E/DX2                !
 ! A23   A(15,4,17)            109.4708         estimate D2E/DX2                !
 ! A24   A(16,4,17)            109.4717         estimate D2E/DX2                !
 ! A25   A(1,5,6)              109.4708         estimate D2E/DX2                !
 ! A26   A(1,5,7)              109.4715         estimate D2E/DX2                !
 ! A27   A(1,5,8)              109.4711         estimate D2E/DX2                !
 ! A28   A(6,5,7)              109.4713         estimate D2E/DX2                !
 ! A29   A(6,5,8)              109.4718         estimate D2E/DX2                !
 ! A30   A(7,5,8)              109.4709         estimate D2E/DX2                !
 ! D1    D(3,1,2,9)             59.9998         estimate D2E/DX2                !
 ! D2    D(3,1,2,10)           -60.0001         estimate D2E/DX2                !
 ! D3    D(3,1,2,11)           179.9994         estimate D2E/DX2                !
 ! D4    D(4,1,2,9)            -60.0002         estimate D2E/DX2                !
 ! D5    D(4,1,2,10)           179.9999         estimate D2E/DX2                !
 ! D6    D(4,1,2,11)            59.9994         estimate D2E/DX2                !
 ! D7    D(5,1,2,9)           -179.9998         estimate D2E/DX2                !
 ! D8    D(5,1,2,10)            60.0003         estimate D2E/DX2                !
 ! D9    D(5,1,2,11)           -60.0002         estimate D2E/DX2                !
 ! D10   D(2,1,3,12)           -59.9997         estimate D2E/DX2                !
 ! D11   D(2,1,3,13)           179.9998         estimate D2E/DX2                !
 ! D12   D(2,1,3,14)            60.0004         estimate D2E/DX2                !
 ! D13   D(4,1,3,12)            60.0005         estimate D2E/DX2                !
 ! D14   D(4,1,3,13)           -60.0            estimate D2E/DX2                !
 ! D15   D(4,1,3,14)          -179.9994         estimate D2E/DX2                !
 ! D16   D(5,1,3,12)           180.0            estimate D2E/DX2                !
 ! D17   D(5,1,3,13)            59.9994         estimate D2E/DX2                !
 ! D18   D(5,1,3,14)           -59.9999         estimate D2E/DX2                !
 ! D19   D(2,1,4,15)            60.0002         estimate D2E/DX2                !
 ! D20   D(2,1,4,16)           -59.9995         estimate D2E/DX2                !
 ! D21   D(2,1,4,17)           179.9996         estimate D2E/DX2                !
 ! D22   D(3,1,4,15)           -59.9997         estimate D2E/DX2                !
 ! D23   D(3,1,4,16)          -179.9994         estimate D2E/DX2                !
 ! D24   D(3,1,4,17)            59.9996         estimate D2E/DX2                !
 ! D25   D(5,1,4,15)          -179.9996         estimate D2E/DX2                !
 ! D26   D(5,1,4,16)            60.0007         estimate D2E/DX2                !
 ! D27   D(5,1,4,17)           -60.0003         estimate D2E/DX2                !
 ! D28   D(2,1,5,6)            -60.0            estimate D2E/DX2                !
 ! D29   D(2,1,5,7)            180.0            estimate D2E/DX2                !
 ! D30   D(2,1,5,8)             60.0004         estimate D2E/DX2                !
 ! D31   D(3,1,5,6)             60.0002         estimate D2E/DX2                !
 ! D32   D(3,1,5,7)            -59.9999         estimate D2E/DX2                !
 ! D33   D(3,1,5,8)           -179.9995         estimate D2E/DX2                !
 ! D34   D(4,1,5,6)            179.9999         estimate D2E/DX2                !
 ! D35   D(4,1,5,7)             59.9999         estimate D2E/DX2                !
 ! D36   D(4,1,5,8)            -59.9997         estimate D2E/DX2                !
 --------------------------------------------------------------------------------
 Trust Radius=3.00D-01 FncErr=1.00D-07 GrdErr=1.00D-06 EigMax=2.50D+02 EigMin=1.00D-04
 Number of steps in this run=     92 maximum allowed number of steps=    102.
 GradGradGradGradGradGradGradGradGradGradGradGradGradGradGradGradGradGrad

                          Input orientation:                          
 ---------------------------------------------------------------------
 Center     Atomic      Atomic             Coordinates (Angstroms)
 Number     Number       Type             X           Y           Z
 ---------------------------------------------------------------------
      1         14           0        0.820820    0.850130    0.000000
      2          6           0        2.240820    0.850130    0.000000
      3          6           0        0.347490    0.365620    1.248040
      4          6           0        0.347480    0.011550   -1.043620
      5          6           0        0.347480    2.173220   -0.204430
      6          1           0        0.704150    2.805110    0.581960
      7          1           0       -0.722520    2.173220   -0.204430
      8          1           0        0.704140    2.538300   -1.144860
      9          1           0        2.597480   -0.146850    0.154040
     10          1           0        2.597490    1.482020    0.786390
     11          1           0        2.597490    1.215210   -0.940430
     12          1           0        0.704160   -0.631350    1.402080
     13          1           0       -0.722510    0.365620    1.248050
     14          1           0        0.704150    0.997510    2.034430
     15          1           0        0.704150   -0.985430   -0.889570
     16          1           0        0.704150    0.376630   -1.984040
     17          1           0       -0.722520    0.011540   -1.043620
 ---------------------------------------------------------------------
                    Distance matrix (angstroms):
                    1          2          3          4          5
     1  Si   0.000000
     2  C    1.420000   0.000000
     3  C    1.419998   2.318847   0.000000
     4  C    1.420003   2.318857   2.318851   0.000000
     5  C    1.420003   2.318856   2.318855   2.318848   0.000000
     6  H    2.043095   2.553817   2.553817   3.251723   1.070004
     7  H    2.043100   3.251729   2.553822   2.553812   1.070000
     8  H    2.043095   2.553822   3.251724   2.553805   1.069999
     9  H    2.043090   1.070002   2.553804   2.553817   3.251727
    10  H    2.043098   1.070004   2.553815   3.251732   2.553826
    11  H    2.043098   1.070003   3.251723   2.553819   2.553825
    12  H    2.043091   2.553808   1.069996   2.553819   3.251724
    13  H    2.043097   3.251723   1.070000   2.553820   2.553820
    14  H    2.043095   2.553817   1.070000   3.251726   2.553821
    15  H    2.043093   2.553815   2.553805   1.070007   3.251723
    16  H    2.043093   2.553815   3.251718   1.069994   2.553813
    17  H    2.043104   3.251732   2.553821   1.070000   2.553821
                    6          7          8          9         10
     6  H    0.000000
     7  H    1.747307   0.000000
     8  H    1.747311   1.747298   0.000000
     9  H    3.532971   4.066156   3.532974   0.000000
    10  H    2.318856   3.532980   2.903486   1.747308   0.000000
    11  H    2.903479   3.532980   2.318865   1.747304   1.747311
    12  H    3.532967   3.532974   4.066151   2.318837   2.903464
    13  H    2.903471   2.318861   3.532971   3.532962   3.532970
    14  H    2.318855   2.903476   3.532976   2.903468   2.318855
    15  H    4.066152   3.532970   3.532966   2.318844   3.532972
    16  H    3.532969   2.903469   2.318845   2.903466   3.532974
    17  H    3.532978   2.318858   2.903468   3.532970   4.066167
                   11         12         13         14         15
    11  H    0.000000
    12  H    3.532964   0.000000
    13  H    4.066159   1.747301   0.000000
    14  H    3.532976   1.747298   1.747294   0.000000
    15  H    2.903470   2.318843   2.903466   3.532963   0.000000
    16  H    2.318852   3.532964   3.532971   4.066152   1.747304
    17  H    3.532978   2.903476   2.318863   3.532976   1.747303
                   16         17
    16  H    0.000000
    17  H    1.747303   0.000000
 This structure is nearly, but not quite of a higher symmetry.
 Consider Symm=Loose if the higher symmetry is desired.
 Stoichiometry    C4H12Si
 Framework group  C1[X(C4H12Si)]
 Deg. of freedom    45
 Full point group                 C1      NOp   1
 Largest Abelian subgroup         C1      NOp   1
 Largest concise Abelian subgroup C1      NOp   1
                         Standard orientation:                         
 ---------------------------------------------------------------------
 Center     Atomic      Atomic             Coordinates (Angstroms)
 Number     Number       Type             X           Y           Z
 ---------------------------------------------------------------------
      1         14           0        0.000001    0.000001    0.000001
      2          6           0        1.313718    0.520291    0.140881
      3          6           0       -0.460912   -0.468840    1.258628
      4          6           0        0.013256   -1.073746   -0.929139
      5          6           0       -0.866064    1.022296   -0.470376
      6          1           0       -0.876054    1.831388    0.229751
      7          1           0       -1.855978    0.630247   -0.576531
      8          1           0       -0.518756    1.375567   -1.418782
      9          1           0        1.966308   -0.250038    0.495317
     10          1           0        1.303728    1.329383    0.841007
     11          1           0        1.661036    0.873566   -0.807525
     12          1           0        0.191683   -1.239155    1.613063
     13          1           0       -1.450827   -0.860888    1.152482
     14          1           0       -0.470912    0.340249    1.958754
     15          1           0        0.665853   -1.844069   -0.574692
     16          1           0        0.360572   -0.720469   -1.877534
     17          1           0       -0.976654   -1.465804   -1.035293
 ---------------------------------------------------------------------
 Rotational constants (GHZ):           5.1474838           5.1474603           5.1474553
 Standard basis: CC-pVDZ (5D, 7F)
 There are   139 symmetry adapted cartesian basis functions of A   symmetry.
 There are   134 symmetry adapted basis functions of A   symmetry.
   134 basis functions,   287 primitive gaussians,   139 cartesian basis functions
    25 alpha electrons       25 beta electrons
       nuclear repulsion energy       308.1185049427 Hartrees.
 NAtoms=   17 NActive=   17 NUniq=   17 SFac= 1.00D+00 NAtFMM=   60 NAOKFM=F Big=F
 Integral buffers will be    131072 words long.
 Raffenetti 2 integral format.
 Two-electron integral symmetry is turned on.
 Nuclear repulsion after empirical dispersion term =      308.1037350417 Hartrees.
 One-electron integrals computed using PRISM.
 NBasis=   134 RedAO= T EigKep=  3.69D-04  NBF=   134
 NBsUse=   134 1.00D-06 EigRej= -1.00D+00 NBFU=   134
 ExpMin= 8.77D-02 ExpMax= 7.89D+04 ExpMxC= 2.69D+03 IAcc=3 IRadAn=         5 AccDes= 0.00D+00
 Harris functional with IExCor= 1009 and IRadAn=       5 diagonalized for initial guess.
 HarFok:  IExCor= 1009 AccDes= 0.00D+00 IRadAn=         5 IDoV= 1 UseB2=F ITyADJ=14
 ICtDFT=  3500011 ScaDFX=  1.000000  1.000000  1.000000  1.000000
 FoFCou: FMM=F IPFlag=           0 FMFlag=      100000 FMFlg1=           0
         NFxFlg=           0 DoJE=T BraDBF=F KetDBF=T FulRan=T
         wScrn=  0.000000 ICntrl=       500 IOpCl=  0 I1Cent=   200000004 NGrid=           0
         NMat0=    1 NMatS0=      1 NMatT0=    0 NMatD0=    1 NMtDS0=    0 NMtDT0=    0
 Petite list used in FoFCou.
 Requested convergence on RMS density matrix=1.00D-08 within 128 cycles.
 Requested convergence on MAX density matrix=1.00D-06.
 Requested convergence on             energy=1.00D-06.
 No special actions if energy rises.
 Integral accuracy reduced to 1.0D-05 until final iterations.
 Initial convergence to 1.0D-05 achieved.  Increase integral accuracy.
 SCF Done:  E(RPBE1PBE) =  -448.171998512     A.U. after   11 cycles
            NFock= 11  Conv=0.66D-08     -V/T= 1.9891

 **********************************************************************

            Population analysis using the SCF density.

 **********************************************************************

 Orbital symmetries:
       Occupied  (A) (A) (A) (A) (A) (A) (A) (A) (A) (A) (A) (A)
                 (A) (A) (A) (A) (A) (A) (A) (A) (A) (A) (A) (A)
                 (A)
       Virtual   (A) (A) (A) (A) (A) (A) (A) (A) (A) (A) (A) (A)
                 (A) (A) (A) (A) (A) (A) (A) (A) (A) (A) (A) (A)
                 (A) (A) (A) (A) (A) (A) (A) (A) (A) (A) (A) (A)
                 (A) (A) (A) (A) (A) (A) (A) (A) (A) (A) (A) (A)
                 (A) (A) (A) (A) (A) (A) (A) (A) (A) (A) (A) (A)
                 (A) (A) (A) (A) (A) (A) (A) (A) (A) (A) (A) (A)
                 (A) (A) (A) (A) (A) (A) (A) (A) (A) (A) (A) (A)
                 (A) (A) (A) (A) (A) (A) (A) (A) (A) (A) (A) (A)
                 (A) (A) (A) (A) (A) (A) (A) (A) (A) (A) (A) (A)
                 (A)
 The electronic state is 1-A.
 Alpha  occ. eigenvalues --  -66.02333 -10.14159 -10.14158 -10.14158 -10.14158
 Alpha  occ. eigenvalues --   -5.19509  -3.52369  -3.52369  -3.52369  -0.85017
 Alpha  occ. eigenvalues --   -0.71758  -0.71758  -0.71758  -0.47855  -0.47855
 Alpha  occ. eigenvalues --   -0.47855  -0.46079  -0.43786  -0.43786  -0.37291
 Alpha  occ. eigenvalues --   -0.37291  -0.37291  -0.28799  -0.28799  -0.28798
 Alpha virt. eigenvalues --    0.05378   0.10495   0.10495   0.10495   0.14868
 Alpha virt. eigenvalues --    0.14868   0.14868   0.15337   0.15337   0.21262
 Alpha virt. eigenvalues --    0.21262   0.21262   0.29264   0.29264   0.29264
 Alpha virt. eigenvalues --    0.32637   0.36452   0.36452   0.39156   0.39156
 Alpha virt. eigenvalues --    0.39156   0.50454   0.50455   0.50455   0.55080
 Alpha virt. eigenvalues --    0.55335   0.55335   0.58014   0.58014   0.58014
 Alpha virt. eigenvalues --    0.63943   0.63943   0.63943   0.73555   0.73555
 Alpha virt. eigenvalues --    0.73555   0.76709   0.76709   0.76709   0.78718
 Alpha virt. eigenvalues --    0.78934   0.78934   0.78934   0.86511   0.86512
 Alpha virt. eigenvalues --    1.02484   1.17286   1.17286   1.17286   1.26714
 Alpha virt. eigenvalues --    1.32566   1.32566   1.32566   1.34955   1.34955
 Alpha virt. eigenvalues --    1.38030   1.38030   1.38031   1.43789   1.43789
 Alpha virt. eigenvalues --    1.43789   1.47141   1.61325   1.61325   1.61325
 Alpha virt. eigenvalues --    1.65972   1.65972   1.65972   1.69898   1.69898
 Alpha virt. eigenvalues --    1.69898   1.70899   1.70899   1.75377   1.75377
 Alpha virt. eigenvalues --    1.75377   1.93233   1.93233   1.93234   1.94035
 Alpha virt. eigenvalues --    1.97682   1.97682   1.97683   2.09869   2.09869
 Alpha virt. eigenvalues --    2.23448   2.23449   2.23449   2.23707   2.23707
 Alpha virt. eigenvalues --    2.23707   2.24003   2.24003   2.27523   2.27524
 Alpha virt. eigenvalues --    2.27524   2.37110   2.52284   2.55064   2.55064
 Alpha virt. eigenvalues --    2.55064   2.60924   2.60925   2.60925   2.70629
 Alpha virt. eigenvalues --    2.70630   2.70630   3.19595   3.19596
          Condensed to atoms (all electrons):
               1          2          3          4          5          6
     1  Si  12.442318   0.519597   0.519594   0.519604   0.519604  -0.012866
     2  C    0.519597   4.701150  -0.069823  -0.069821  -0.069824  -0.013012
     3  C    0.519594  -0.069823   4.701148  -0.069821  -0.069826  -0.013011
     4  C    0.519604  -0.069821  -0.069821   4.701137  -0.069829   0.016113
     5  C    0.519604  -0.069824  -0.069826  -0.069829   4.701132   0.348842
     6  H   -0.012866  -0.013012  -0.013011   0.016113   0.348842   0.668407
     7  H   -0.012865   0.016113  -0.013012  -0.013012   0.348844  -0.019336
     8  H   -0.012871  -0.013011   0.016113  -0.013011   0.348845  -0.019337
     9  H   -0.012864   0.348842  -0.013012  -0.013012   0.016113  -0.000247
    10  H   -0.012863   0.348843  -0.013012   0.016112  -0.013012   0.003732
    11  H   -0.012868   0.348843   0.016113  -0.013012  -0.013011  -0.000572
    12  H   -0.012861  -0.013012   0.348841  -0.013012   0.016113  -0.000247
    13  H   -0.012869   0.016113   0.348845  -0.013011  -0.013011  -0.000572
    14  H   -0.012863  -0.013012   0.348841   0.016113  -0.013012   0.003732
    15  H   -0.012867  -0.013012  -0.013012   0.348842   0.016113  -0.001014
    16  H   -0.012865  -0.013011   0.016113   0.348843  -0.013011  -0.000247
    17  H   -0.012867   0.016113  -0.013011   0.348845  -0.013011  -0.000247
               7          8          9         10         11         12
     1  Si  -0.012865  -0.012871  -0.012864  -0.012863  -0.012868  -0.012861
     2  C    0.016113  -0.013011   0.348842   0.348843   0.348843  -0.013012
     3  C   -0.013012   0.016113  -0.013012  -0.013012   0.016113   0.348841
     4  C   -0.013012  -0.013011  -0.013012   0.016112  -0.013012  -0.013012
     5  C    0.348844   0.348845   0.016113  -0.013012  -0.013011   0.016113
     6  H   -0.019336  -0.019337  -0.000247   0.003732  -0.000572  -0.000247
     7  H    0.668405  -0.019337  -0.001014  -0.000247  -0.000247  -0.000247
     8  H   -0.019337   0.668409  -0.000247  -0.000572   0.003732  -0.001014
     9  H   -0.001014  -0.000247   0.668404  -0.019337  -0.019336   0.003731
    10  H   -0.000247  -0.000572  -0.019337   0.668402  -0.019337  -0.000572
    11  H   -0.000247   0.003732  -0.019336  -0.019337   0.668404  -0.000247
    12  H   -0.000247  -0.001014   0.003731  -0.000572  -0.000247   0.668404
    13  H    0.003731  -0.000247  -0.000247  -0.000247  -0.001014  -0.019336
    14  H   -0.000572  -0.000247  -0.000572   0.003732  -0.000247  -0.019337
    15  H   -0.000247  -0.000247   0.003732  -0.000247  -0.000572   0.003732
    16  H   -0.000572   0.003732  -0.000572  -0.000247   0.003732  -0.000247
    17  H    0.003731  -0.000572  -0.000247  -0.001014  -0.000247  -0.000572
              13         14         15         16         17
     1  Si  -0.012869  -0.012863  -0.012867  -0.012865  -0.012867
     2  C    0.016113  -0.013012  -0.013012  -0.013011   0.016113
     3  C    0.348845   0.348841  -0.013012   0.016113  -0.013011
     4  C   -0.013011   0.016113   0.348842   0.348843   0.348845
     5  C   -0.013011  -0.013012   0.016113  -0.013011  -0.013011
     6  H   -0.000572   0.003732  -0.001014  -0.000247  -0.000247
     7  H    0.003731  -0.000572  -0.000247  -0.000572   0.003731
     8  H   -0.000247  -0.000247  -0.000247   0.003732  -0.000572
     9  H   -0.000247  -0.000572   0.003732  -0.000572  -0.000247
    10  H   -0.000247   0.003732  -0.000247  -0.000247  -0.001014
    11  H   -0.001014  -0.000247  -0.000572   0.003732  -0.000247
    12  H   -0.019336  -0.019337   0.003732  -0.000247  -0.000572
    13  H    0.668406  -0.019337  -0.000572  -0.000247   0.003732
    14  H   -0.019337   0.668406  -0.000247  -0.001014  -0.000247
    15  H   -0.000572  -0.000247   0.668407  -0.019336  -0.019336
    16  H   -0.000247  -0.001014  -0.019336   0.668405  -0.019337
    17  H    0.003732  -0.000247  -0.019336  -0.019337   0.668406
 Mulliken charges:
               1
     1  Si  -0.366327
     2  C   -0.028076
     3  C   -0.028069
     4  C   -0.028070
     5  C   -0.028060
     6  H    0.039882
     7  H    0.039883
     8  H    0.039881
     9  H    0.039885
    10  H    0.039886
    11  H    0.039885
    12  H    0.039884
    13  H    0.039883
    14  H    0.039883
    15  H    0.039884
    16  H    0.039883
    17  H    0.039882
 Sum of Mulliken charges =  -0.00000
 Mulliken charges with hydrogens summed into heavy atoms:
               1
     1  Si  -0.366327
     2  C    0.091580
     3  C    0.091581
     4  C    0.091579
     5  C    0.091587
 Electronic spatial extent (au):  <R**2>=            441.8985
 Charge=             -0.0000 electrons
 Dipole moment (field-independent basis, Debye):
    X=              0.0000    Y=             -0.0000    Z=              0.0000  Tot=              0.0000
 Quadrupole moment (field-independent basis, Debye-Ang):
   XX=            -40.4423   YY=            -40.4424   ZZ=            -40.4423
   XY=              0.0000   XZ=             -0.0000   YZ=              0.0000
 Traceless Quadrupole moment (field-independent basis, Debye-Ang):
   XX=              0.0000   YY=             -0.0001   ZZ=              0.0001
   XY=              0.0000   XZ=             -0.0000   YZ=              0.0000
 Octapole moment (field-independent basis, Debye-Ang**2):
  XXX=             -4.4110  YYY=              0.3824  ZZZ=             -3.1648  XYY=              1.8445
  XXY=             -4.5421  XXZ=             -0.4572  XZZ=              2.5664  YZZ=              4.1596
  YYZ=              3.6224  XYZ=             -2.3160
 Hexadecapole moment (field-independent basis, Debye-Ang**3):
 XXXX=           -213.4327 YYYY=           -211.5050 ZZZZ=           -212.9111 XXXY=             -1.0374
 XXXZ=             -0.9276 YYYX=              1.3107 YYYZ=             -0.9938 ZZZX=              1.5439
 ZZZY=              0.3297 XXYY=            -71.3337 XXZZ=            -69.9272 YYZZ=            -71.8550
 XXYZ=              0.6640 YYXZ=             -0.6174 ZZXY=             -0.2729
 N-N= 3.081037350417D+02 E-N=-1.679648573171D+03  KE= 4.531059185427D+02
 Calling FoFJK, ICntrl=      2127 FMM=F ISym2X=0 I1Cent= 0 IOpClX= 0 NMat=1 NMatS=1 NMatT=0.
 ***** Axes restored to original set *****
 -------------------------------------------------------------------
 Center     Atomic                   Forces (Hartrees/Bohr)
 Number     Number              X              Y              Z
 -------------------------------------------------------------------
      1       14          -0.000010073    0.000036195   -0.000023436
      2        6           0.498115785    0.000004706    0.000000017
      3        6          -0.166033287   -0.169967766    0.437798390
      4        6          -0.166032726   -0.294172086   -0.366071478
      5        6          -0.166038484    0.464105150   -0.071704614
      6        1           0.001011578    0.023337040    0.010594394
      7        1          -0.021908951    0.013194728   -0.002036499
      8        1           0.001015054    0.019051236   -0.017144715
      9        1           0.019886427   -0.016017246    0.002474854
     10        1           0.019887472    0.010146184    0.012629669
     11        1           0.019886571    0.005863639   -0.015102672
     12        1           0.001011559   -0.020849818    0.014917822
     13        1          -0.021903676   -0.004830427    0.012438760
     14        1           0.001009842    0.005327122    0.025074313
     15        1           0.001009365   -0.024369558   -0.007927084
     16        1           0.001007886   -0.002501414   -0.025516980
     17        1          -0.021914341   -0.008357686   -0.010400743
 -------------------------------------------------------------------
 Cartesian Forces:  Max     0.498115785 RMS     0.140052925

 GradGradGradGradGradGradGradGradGradGradGradGradGradGradGradGradGradGrad
 Berny optimization.
 FormGI is forming the generalized inverse of G from B-inverse, IUseBI=4.
 Internal  Forces:  Max     0.557776255 RMS     0.123690691
 Search for a local minimum.
 Step number   1 out of a maximum of   92
 All quantities printed in internal units (Hartrees-Bohrs-Radians)
 Mixed Optimization -- RFO/linear search
 Second derivative matrix not updated -- first step.
 ITU=  0
     Eigenvalues ---    0.07117   0.07117   0.07117   0.07117   0.10207
     Eigenvalues ---    0.10207   0.10207   0.10207   0.10207   0.10207
     Eigenvalues ---    0.10207   0.10207   0.10369   0.10369   0.10369
     Eigenvalues ---    0.16000   0.16000   0.16000   0.16000   0.16000
     Eigenvalues ---    0.16000   0.16000   0.16000   0.16000   0.16000
     Eigenvalues ---    0.16000   0.16000   0.17336   0.17336   0.37229
     Eigenvalues ---    0.37230   0.37230   0.37230   0.37230   0.37230
     Eigenvalues ---    0.37230   0.37230   0.37230   0.37230   0.37231
     Eigenvalues ---    0.37231   1.10684   1.10684   1.10686   1.10687
 RFO step:  Lambda=-6.99408237D-01 EMin= 7.11715382D-02
 Linear search not attempted -- first point.
 Maximum step size (   0.300) exceeded in Quadratic search.
    -- Step size scaled by   0.479
 Iteration  1 RMS(Cart)=  0.07125282 RMS(Int)=  0.00002717
 Iteration  2 RMS(Cart)=  0.00002223 RMS(Int)=  0.00001600
 Iteration  3 RMS(Cart)=  0.00000000 RMS(Int)=  0.00001600
 Variable       Old X    -DE/DX   Delta X   Delta X   Delta X     New X
                                 (Linear)    (Quad)   (Total)
    R1        2.68341   0.55778   0.00000   0.14790   0.14790   2.83131
    R2        2.68341   0.55777   0.00000   0.14790   0.14790   2.83130
    R3        2.68342   0.55777   0.00000   0.14790   0.14790   2.83131
    R4        2.68342   0.55775   0.00000   0.14789   0.14789   2.83131
    R5        2.02201   0.02191   0.00000   0.00979   0.00979   2.03180
    R6        2.02201   0.02190   0.00000   0.00979   0.00979   2.03180
    R7        2.02201   0.02190   0.00000   0.00979   0.00979   2.03180
    R8        2.02200   0.02191   0.00000   0.00979   0.00979   2.03179
    R9        2.02201   0.02190   0.00000   0.00979   0.00979   2.03180
   R10        2.02201   0.02191   0.00000   0.00979   0.00979   2.03180
   R11        2.02202   0.02190   0.00000   0.00979   0.00979   2.03181
   R12        2.02200   0.02191   0.00000   0.00979   0.00979   2.03179
   R13        2.02201   0.02191   0.00000   0.00979   0.00979   2.03180
   R14        2.02201   0.02191   0.00000   0.00979   0.00979   2.03180
   R15        2.02201   0.02191   0.00000   0.00979   0.00979   2.03180
   R16        2.02201   0.02191   0.00000   0.00979   0.00979   2.03180
    A1        1.91063  -0.00000   0.00000  -0.00000  -0.00000   1.91063
    A2        1.91064   0.00000   0.00000   0.00000   0.00000   1.91064
    A3        1.91064  -0.00000   0.00000  -0.00000  -0.00000   1.91064
    A4        1.91063  -0.00001   0.00000  -0.00001  -0.00001   1.91063
    A5        1.91064   0.00000   0.00000   0.00000   0.00000   1.91064
    A6        1.91062   0.00001   0.00000   0.00000   0.00000   1.91063
    A7        1.91063   0.01349   0.00000   0.00752   0.00749   1.91812
    A8        1.91064   0.01350   0.00000   0.00752   0.00749   1.91813
    A9        1.91064   0.01350   0.00000   0.00752   0.00749   1.91813
   A10        1.91063  -0.01350   0.00000  -0.00752  -0.00755   1.90308
   A11        1.91063  -0.01349   0.00000  -0.00752  -0.00755   1.90308
   A12        1.91064  -0.01350   0.00000  -0.00752  -0.00755   1.90309
   A13        1.91064   0.01350   0.00000   0.00752   0.00749   1.91813
   A14        1.91064   0.01349   0.00000   0.00752   0.00749   1.91813
   A15        1.91064   0.01349   0.00000   0.00752   0.00749   1.91813
   A16        1.91064  -0.01349   0.00000  -0.00752  -0.00755   1.90309
   A17        1.91063  -0.01349   0.00000  -0.00752  -0.00755   1.90308
   A18        1.91062  -0.01349   0.00000  -0.00752  -0.00755   1.90307
   A19        1.91062   0.01349   0.00000   0.00752   0.00749   1.91811
   A20        1.91063   0.01351   0.00000   0.00753   0.00750   1.91813
   A21        1.91064   0.01349   0.00000   0.00752   0.00749   1.91813
   A22        1.91064  -0.01350   0.00000  -0.00752  -0.00755   1.90308
   A23        1.91063  -0.01349   0.00000  -0.00752  -0.00755   1.90308
   A24        1.91064  -0.01350   0.00000  -0.00752  -0.00755   1.90309
   A25        1.91063   0.01349   0.00000   0.00752   0.00749   1.91811
   A26        1.91064   0.01350   0.00000   0.00752   0.00749   1.91813
   A27        1.91063   0.01349   0.00000   0.00752   0.00749   1.91812
   A28        1.91064  -0.01349   0.00000  -0.00752  -0.00755   1.90309
   A29        1.91064  -0.01349   0.00000  -0.00752  -0.00755   1.90310
   A30        1.91063  -0.01349   0.00000  -0.00752  -0.00755   1.90308
    D1        1.04719  -0.00000   0.00000  -0.00000  -0.00000   1.04719
    D2       -1.04720  -0.00000   0.00000  -0.00000  -0.00000  -1.04720
    D3        3.14158  -0.00000   0.00000  -0.00000  -0.00000   3.14158
    D4       -1.04720   0.00001   0.00000   0.00000   0.00000  -1.04720
    D5        3.14159   0.00001   0.00000   0.00000   0.00000  -3.14159
    D6        1.04719   0.00001   0.00000   0.00000   0.00000   1.04719
    D7       -3.14159  -0.00000   0.00000  -0.00000  -0.00000  -3.14159
    D8        1.04720  -0.00000   0.00000  -0.00000  -0.00000   1.04720
    D9       -1.04720  -0.00000   0.00000  -0.00000  -0.00000  -1.04720
   D10       -1.04719  -0.00000   0.00000  -0.00000  -0.00000  -1.04719
   D11        3.14159   0.00000   0.00000   0.00000   0.00000   3.14159
   D12        1.04720   0.00000   0.00000   0.00000   0.00000   1.04721
   D13        1.04721  -0.00000   0.00000  -0.00000  -0.00000   1.04721
   D14       -1.04720  -0.00000   0.00000  -0.00000  -0.00000  -1.04720
   D15       -3.14158   0.00000   0.00000   0.00000   0.00000  -3.14158
   D16        3.14159   0.00000   0.00000   0.00000   0.00000  -3.14159
   D17        1.04719   0.00000   0.00000   0.00000   0.00000   1.04719
   D18       -1.04720   0.00001   0.00000   0.00000   0.00000  -1.04719
   D19        1.04720  -0.00000   0.00000  -0.00000  -0.00000   1.04720
   D20       -1.04719  -0.00000   0.00000  -0.00000  -0.00000  -1.04719
   D21        3.14158  -0.00000   0.00000  -0.00000  -0.00000   3.14158
   D22       -1.04719   0.00000   0.00000   0.00000   0.00000  -1.04719
   D23       -3.14158   0.00000   0.00000   0.00000   0.00000  -3.14158
   D24        1.04719   0.00000   0.00000   0.00000   0.00000   1.04719
   D25       -3.14159   0.00000   0.00000   0.00000   0.00000  -3.14159
   D26        1.04721   0.00000   0.00000   0.00000   0.00000   1.04721
   D27       -1.04720  -0.00000   0.00000  -0.00000  -0.00000  -1.04720
   D28       -1.04720   0.00000   0.00000   0.00000   0.00000  -1.04719
   D29        3.14159   0.00000   0.00000   0.00000   0.00000  -3.14159
   D30        1.04720   0.00000   0.00000   0.00000   0.00000   1.04720
   D31        1.04720   0.00000   0.00000   0.00000   0.00000   1.04720
   D32       -1.04720   0.00000   0.00000   0.00000   0.00000  -1.04719
   D33       -3.14158  -0.00000   0.00000  -0.00000  -0.00000  -3.14158
   D34        3.14159  -0.00000   0.00000  -0.00000  -0.00000   3.14159
   D35        1.04720  -0.00000   0.00000  -0.00000  -0.00000   1.04719
   D36       -1.04719  -0.00001   0.00000  -0.00000  -0.00000  -1.04720
         Item               Value     Threshold  Converged?
 Maximum Force            0.557776     0.000450     NO 
 RMS     Force            0.123691     0.000300     NO 
 Maximum Displacement     0.165493     0.001800     NO 
 RMS     Displacement     0.071254     0.001200     NO 
 Predicted change in Energy=-2.862318D-01
 GradGradGradGradGradGradGradGradGradGradGradGradGradGradGradGradGradGrad

                          Input orientation:                          
 ---------------------------------------------------------------------
 Center     Atomic      Atomic             Coordinates (Angstroms)
 Number     Number       Type             X           Y           Z
 ---------------------------------------------------------------------
      1         14           0        0.820820    0.850132   -0.000001
      2          6           0        2.319084    0.850134    0.000000
      3          6           0        0.321402    0.338915    1.316823
      4          6           0        0.321391   -0.034670   -1.101137
      5          6           0        0.321393    2.246143   -0.215696
      6          1           0        0.675986    2.887348    0.571159
      7          1           0       -0.753758    2.254108   -0.216926
      8          1           0        0.675977    2.619966   -1.159380
      9          1           0        2.685054   -0.148992    0.154372
     10          1           0        2.685062    1.483383    0.788083
     11          1           0        2.685065    1.216000   -0.942452
     12          1           0        0.675993   -0.663117    1.478701
     13          1           0       -0.753748    0.335999    1.324336
     14          1           0        0.675981    0.969251    2.112414
     15          1           0        0.675983   -1.038838   -0.953028
     16          1           0        0.675976    0.326144   -2.049865
     17          1           0       -0.753761   -0.039724   -1.107410
 ---------------------------------------------------------------------
                    Distance matrix (angstroms):
                    1          2          3          4          5
     1  Si   0.000000
     2  C    1.498264   0.000000
     3  C    1.498261   2.446651   0.000000
     4  C    1.498267   2.446663   2.446650   0.000000
     5  C    1.498265   2.446657   2.446658   2.446654   0.000000
     6  H    2.120719   2.678849   2.678853   3.385336   1.075184
     7  H    2.120731   3.385344   2.678865   2.678858   1.075181
     8  H    2.120719   2.678855   3.385336   2.678846   1.075180
     9  H    2.120719   1.075183   2.678842   2.678857   3.385338
    10  H    2.120728   1.075184   2.678855   3.385348   2.678863
    11  H    2.120727   1.075182   3.385337   2.678865   2.678864
    12  H    2.120721   2.678848   1.075178   2.678853   3.385339
    13  H    2.120723   3.385335   1.075180   2.678850   2.678857
    14  H    2.120723   2.678856   1.075182   3.385337   2.678858
    15  H    2.120718   2.678854   2.678834   1.075186   3.385335
    16  H    2.120727   2.678864   3.385332   1.075175   2.678862
    17  H    2.120732   3.385348   2.678852   1.075182   2.678861
                    6          7          8          9         10
     6  H    0.000000
     7  H    1.751068   0.000000
     8  H    1.751073   1.751060   0.000000
     9  H    3.664618   4.211672   3.664623   0.000000
    10  H    2.460601   3.664634   3.020076   1.751068   0.000000
    11  H    3.020069   3.664636   2.460612   1.751065   1.751070
    12  H    3.664619   3.664634   4.211663   2.460588   3.020062
    13  H    3.020065   2.460615   3.664623   3.664613   3.664624
    14  H    2.460602   3.020072   3.664627   3.020062   2.460608
    15  H    4.211660   3.664628   3.664618   2.460595   3.664624
    16  H    3.664632   3.020074   2.460606   3.020067   3.664639
    17  H    3.664631   2.460615   3.020066   3.664626   4.211681
                   11         12         13         14         15
    11  H    0.000000
    12  H    3.664619   0.000000
    13  H    4.211670   1.751063   0.000000
    14  H    3.664630   1.751062   1.751056   0.000000
    15  H    3.020070   2.460584   3.020049   3.664609   0.000000
    16  H    2.460619   3.664616   3.664620   4.211669   1.751064
    17  H    3.664640   3.020064   2.460601   3.664623   1.751066
                   16         17
    16  H    0.000000
    17  H    1.751066   0.000000
 Stoichiometry    C4H12Si
 Framework group  C1[X(C4H12Si)]
 Deg. of freedom    45
 Full point group                 C1      NOp   1
 Largest Abelian subgroup         C1      NOp   1
 Largest concise Abelian subgroup C1      NOp   1
                         Standard orientation:                         
 ---------------------------------------------------------------------
 Center     Atomic      Atomic             Coordinates (Angstroms)
 Number     Number       Type             X           Y           Z
 ---------------------------------------------------------------------
      1         14           0        0.000001    0.000002   -0.000000
      2          6           0        1.277714    0.184594   -0.760375
      3          6           0        0.252137   -0.863580    1.198099
      4          6           0       -1.016647   -0.656175   -0.883551
      5          6           0       -0.513209    1.335162    0.445825
      6          1           0        0.211480    1.812392    1.080725
      7          1           0       -1.430590    1.210668    0.992568
      8          1           0       -0.696592    1.960826   -0.409117
      9          1           0        1.652294   -0.769930   -1.083783
     10          1           0        2.012610    0.655268   -0.132351
     11          1           0        1.104551    0.803702   -1.622197
     12          1           0        0.620878   -1.824069    0.885853
     13          1           0       -0.660877   -1.000616    1.749133
     14          1           0        0.981177   -0.398881    1.837295
     15          1           0       -0.655131   -1.615492   -1.207654
     16          1           0       -1.202896   -0.041870   -1.746072
     17          1           0       -1.936897   -0.792037   -0.344387
 ---------------------------------------------------------------------
 Rotational constants (GHZ):           4.6753456           4.6753358           4.6753158
 Standard basis: CC-pVDZ (5D, 7F)
 There are   139 symmetry adapted cartesian basis functions of A   symmetry.
 There are   134 symmetry adapted basis functions of A   symmetry.
   134 basis functions,   287 primitive gaussians,   139 cartesian basis functions
    25 alpha electrons       25 beta electrons
       nuclear repulsion energy       294.9773460743 Hartrees.
 NAtoms=   17 NActive=   17 NUniq=   17 SFac= 1.00D+00 NAtFMM=   60 NAOKFM=F Big=F
 Integral buffers will be    131072 words long.
 Raffenetti 2 integral format.
 Two-electron integral symmetry is turned on.
 Nuclear repulsion after empirical dispersion term =      294.9629634005 Hartrees.
 One-electron integrals computed using PRISM.
 NBasis=   134 RedAO= T EigKep=  5.55D-04  NBF=   134
 NBsUse=   134 1.00D-06 EigRej= -1.00D+00 NBFU=   134
 Initial guess from the checkpoint file:  "/scratch/js1212.15076/TMS-GPOF.chk"
 B after Tr=     0.000000    0.000000   -0.000000
         Rot=    0.910785   -0.147700   -0.351474    0.158500 Ang= -48.77 deg.
 ExpMin= 8.77D-02 ExpMax= 7.89D+04 ExpMxC= 2.69D+03 IAcc=2 IRadAn=         4 AccDes= 0.00D+00
 Harris functional with IExCor= 1009 and IRadAn=       4 diagonalized for initial guess.
 HarFok:  IExCor= 1009 AccDes= 0.00D+00 IRadAn=         4 IDoV= 1 UseB2=F ITyADJ=14
 ICtDFT=  3500011 ScaDFX=  1.000000  1.000000  1.000000  1.000000
 FoFCou: FMM=F IPFlag=           0 FMFlag=      100000 FMFlg1=           0
         NFxFlg=           0 DoJE=T BraDBF=F KetDBF=T FulRan=T
         wScrn=  0.000000 ICntrl=       500 IOpCl=  0 I1Cent=   200000004 NGrid=           0
         NMat0=    1 NMatS0=      1 NMatT0=    0 NMatD0=    1 NMtDS0=    0 NMtDT0=    0
 Petite list used in FoFCou.
 Requested convergence on RMS density matrix=1.00D-08 within 128 cycles.
 Requested convergence on MAX density matrix=1.00D-06.
 Requested convergence on             energy=1.00D-06.
 No special actions if energy rises.
 Integral accuracy reduced to 1.0D-05 until final iterations.
 Initial convergence to 1.0D-05 achieved.  Increase integral accuracy.
 SCF Done:  E(RPBE1PBE) =  -448.450533254     A.U. after   10 cycles
            NFock= 10  Conv=0.65D-08     -V/T= 1.9934
 Calling FoFJK, ICntrl=      2127 FMM=F ISym2X=0 I1Cent= 0 IOpClX= 0 NMat=1 NMatS=1 NMatT=0.
 ***** Axes restored to original set *****
 -------------------------------------------------------------------
 Center     Atomic                   Forces (Hartrees/Bohr)
 Number     Number              X              Y              Z
 -------------------------------------------------------------------
      1       14           0.000004293   -0.000005965   -0.000032188
      2        6           0.330556662   -0.000000314    0.000004861
      3        6          -0.110187127   -0.112781730    0.290540317
      4        6          -0.110195998   -0.195216456   -0.242928785
      5        6          -0.110187967    0.308008857   -0.047584432
      6        1           0.001292634    0.018896181    0.009299587
      7        1          -0.018421312    0.010172537   -0.001573712
      8        1           0.001288468    0.015210454   -0.014567649
      9        1           0.015848133   -0.013773750    0.002123243
     10        1           0.015842609    0.008738729    0.010866883
     11        1           0.015850793    0.005041452   -0.012999921
     12        1           0.001287255   -0.017504882    0.011723342
     13        1          -0.018431367   -0.003735339    0.009596220
     14        1           0.001292401    0.005009830    0.020464540
     15        1           0.001289248   -0.020219525   -0.005892191
     16        1           0.001295499   -0.001394130   -0.021020133
     17        1          -0.018424224   -0.006445947   -0.008019983
 -------------------------------------------------------------------
 Cartesian Forces:  Max     0.330556662 RMS     0.093140157

 GradGradGradGradGradGradGradGradGradGradGradGradGradGradGradGradGradGrad
 Berny optimization.
 Using GEDIIS/GDIIS optimizer.
 FormGI is forming the generalized inverse of G from B-inverse, IUseBI=4.
 Internal  Forces:  Max     0.378112993 RMS     0.083989343
 Search for a local minimum.
 Step number   2 out of a maximum of   92
 All quantities printed in internal units (Hartrees-Bohrs-Radians)
 Mixed Optimization -- RFO/linear search
 Update second derivatives using D2CorX and points    1    2
 DE= -2.79D-01 DEPred=-2.86D-01 R= 9.73D-01
 TightC=F SS=  1.41D+00  RLast= 3.00D-01 DXNew= 5.0454D-01 9.0000D-01
 Trust test= 9.73D-01 RLast= 3.00D-01 DXMaxT set to 5.05D-01
 ITU=  1  0
 Use linear search instead of GDIIS.
 Linear search step of   0.600 exceeds DXMaxT=   0.505 but not scaled.
 Quartic linear search produced a step of  2.00000.
 Iteration  1 RMS(Cart)=  0.10024621 RMS(Int)=  0.02116817
 Iteration  2 RMS(Cart)=  0.04233028 RMS(Int)=  0.00009205
 Iteration  3 RMS(Cart)=  0.00000001 RMS(Int)=  0.00009205
 Variable       Old X    -DE/DX   Delta X   Delta X   Delta X     New X
                                 (Linear)    (Quad)   (Total)
    R1        2.83131   0.37810   0.29579   0.00000   0.29579   3.12710
    R2        2.83130   0.37811   0.29579   0.00000   0.29579   3.12710
    R3        2.83131   0.37808   0.29579   0.00000   0.29579   3.12711
    R4        2.83131   0.37809   0.29579   0.00000   0.29579   3.12710
    R5        2.03180   0.01850   0.01958   0.00000   0.01958   2.05138
    R6        2.03180   0.01850   0.01958   0.00000   0.01958   2.05138
    R7        2.03180   0.01851   0.01958   0.00000   0.01958   2.05138
    R8        2.03179   0.01850   0.01958   0.00000   0.01958   2.05138
    R9        2.03180   0.01851   0.01958   0.00000   0.01958   2.05137
   R10        2.03180   0.01851   0.01958   0.00000   0.01958   2.05138
   R11        2.03181   0.01850   0.01958   0.00000   0.01958   2.05138
   R12        2.03179   0.01851   0.01958   0.00000   0.01958   2.05137
   R13        2.03180   0.01850   0.01959   0.00000   0.01959   2.05139
   R14        2.03180   0.01850   0.01958   0.00000   0.01958   2.05138
   R15        2.03180   0.01850   0.01958   0.00000   0.01958   2.05138
   R16        2.03180   0.01850   0.01958   0.00000   0.01958   2.05138
    A1        1.91063   0.00000  -0.00000   0.00000  -0.00000   1.91063
    A2        1.91064   0.00000   0.00000   0.00000   0.00000   1.91064
    A3        1.91064  -0.00001  -0.00000   0.00000  -0.00000   1.91063
    A4        1.91063  -0.00000  -0.00001   0.00000  -0.00001   1.91062
    A5        1.91064   0.00000   0.00000   0.00000   0.00000   1.91064
    A6        1.91063   0.00000   0.00001   0.00000   0.00001   1.91064
    A7        1.91812   0.01016   0.01498   0.00000   0.01481   1.93292
    A8        1.91813   0.01015   0.01498   0.00000   0.01481   1.93294
    A9        1.91813   0.01016   0.01498   0.00000   0.01481   1.93294
   A10        1.90308  -0.01031  -0.01510   0.00000  -0.01527   1.88782
   A11        1.90308  -0.01032  -0.01510   0.00000  -0.01527   1.88781
   A12        1.90309  -0.01031  -0.01510   0.00000  -0.01527   1.88782
   A13        1.91813   0.01015   0.01498   0.00000   0.01481   1.93294
   A14        1.91813   0.01016   0.01497   0.00000   0.01480   1.93293
   A15        1.91813   0.01015   0.01498   0.00000   0.01480   1.93293
   A16        1.90309  -0.01032  -0.01510   0.00000  -0.01526   1.88782
   A17        1.90308  -0.01031  -0.01510   0.00000  -0.01526   1.88782
   A18        1.90307  -0.01031  -0.01510   0.00000  -0.01526   1.88781
   A19        1.91811   0.01015   0.01497   0.00000   0.01480   1.93291
   A20        1.91813   0.01014   0.01499   0.00000   0.01482   1.93295
   A21        1.91813   0.01015   0.01497   0.00000   0.01480   1.93293
   A22        1.90308  -0.01031  -0.01510   0.00000  -0.01527   1.88782
   A23        1.90308  -0.01031  -0.01509   0.00000  -0.01526   1.88782
   A24        1.90309  -0.01031  -0.01510   0.00000  -0.01527   1.88782
   A25        1.91811   0.01014   0.01497   0.00000   0.01480   1.93291
   A26        1.91813   0.01016   0.01499   0.00000   0.01482   1.93295
   A27        1.91812   0.01015   0.01497   0.00000   0.01480   1.93292
   A28        1.90309  -0.01031  -0.01510   0.00000  -0.01527   1.88782
   A29        1.90310  -0.01031  -0.01509   0.00000  -0.01526   1.88783
   A30        1.90308  -0.01031  -0.01510   0.00000  -0.01526   1.88782
    D1        1.04719   0.00000  -0.00000   0.00000  -0.00000   1.04719
    D2       -1.04720  -0.00000  -0.00000   0.00000  -0.00000  -1.04720
    D3        3.14158  -0.00000  -0.00000   0.00000  -0.00000   3.14158
    D4       -1.04720   0.00000   0.00001   0.00000   0.00001  -1.04719
    D5       -3.14159  -0.00000   0.00001   0.00000   0.00001  -3.14158
    D6        1.04719  -0.00000   0.00001   0.00000   0.00001   1.04720
    D7       -3.14159  -0.00000  -0.00000   0.00000  -0.00000   3.14159
    D8        1.04720  -0.00000  -0.00000   0.00000  -0.00000   1.04720
    D9       -1.04720  -0.00000  -0.00000   0.00000  -0.00000  -1.04721
   D10       -1.04719  -0.00000  -0.00000   0.00000  -0.00000  -1.04719
   D11        3.14159   0.00000   0.00000   0.00000   0.00000   3.14159
   D12        1.04721  -0.00000   0.00000   0.00000   0.00000   1.04721
   D13        1.04721   0.00000  -0.00000   0.00000  -0.00000   1.04720
   D14       -1.04720   0.00000  -0.00000   0.00000  -0.00000  -1.04720
   D15       -3.14158   0.00000   0.00000   0.00000   0.00000  -3.14158
   D16       -3.14159   0.00000   0.00000   0.00000   0.00000  -3.14159
   D17        1.04719   0.00001   0.00000   0.00000   0.00000   1.04719
   D18       -1.04719   0.00000   0.00001   0.00000   0.00001  -1.04719
   D19        1.04720   0.00000  -0.00000   0.00000  -0.00000   1.04720
   D20       -1.04719   0.00000  -0.00000   0.00000  -0.00000  -1.04719
   D21        3.14158   0.00000  -0.00000   0.00000  -0.00000   3.14158
   D22       -1.04719  -0.00000   0.00000   0.00000   0.00000  -1.04719
   D23       -3.14158  -0.00000   0.00000   0.00000   0.00000  -3.14158
   D24        1.04719  -0.00000   0.00000   0.00000   0.00000   1.04719
   D25       -3.14159  -0.00000   0.00000   0.00000   0.00000  -3.14158
   D26        1.04721  -0.00000   0.00000   0.00000   0.00000   1.04721
   D27       -1.04720  -0.00000  -0.00000   0.00000  -0.00000  -1.04720
   D28       -1.04719   0.00000   0.00000   0.00000   0.00000  -1.04719
   D29       -3.14159   0.00000   0.00000   0.00000   0.00000  -3.14159
   D30        1.04720   0.00000   0.00000   0.00000  -0.00000   1.04720
   D31        1.04720   0.00000   0.00000   0.00000   0.00000   1.04720
   D32       -1.04719  -0.00000   0.00000   0.00000   0.00000  -1.04719
   D33       -3.14158   0.00000  -0.00000   0.00000  -0.00000  -3.14159
   D34        3.14159  -0.00000  -0.00000   0.00000  -0.00000   3.14159
   D35        1.04719  -0.00000  -0.00000   0.00000  -0.00000   1.04719
   D36       -1.04720  -0.00000  -0.00001   0.00000  -0.00001  -1.04720
         Item               Value     Threshold  Converged?
 Maximum Force            0.378113     0.000450     NO 
 RMS     Force            0.083989     0.000300     NO 
 Maximum Displacement     0.330949     0.001800     NO 
 RMS     Displacement     0.142493     0.001200     NO 
 Predicted change in Energy=-2.408315D-01
 GradGradGradGradGradGradGradGradGradGradGradGradGradGradGradGradGradGrad

                          Input orientation:                          
 ---------------------------------------------------------------------
 Center     Atomic      Atomic             Coordinates (Angstroms)
 Number     Number       Type             X           Y           Z
 ---------------------------------------------------------------------
      1         14           0        0.820819    0.850136   -0.000005
      2          6           0        2.475611    0.850143    0.000000
      3          6           0        0.269226    0.285503    1.454388
      4          6           0        0.269212   -0.127111   -1.216172
      5          6           0        0.269220    2.391989   -0.238229
      6          1           0        0.619580    3.051750    0.549407
      7          1           0       -0.816053    2.415925   -0.241925
      8          1           0        0.619572    2.783273   -1.188255
      9          1           0        2.860181   -0.153096    0.155008
     10          1           0        2.860187    1.485995    0.791327
     11          1           0        2.860196    1.217516   -0.946325
     12          1           0        0.619581   -0.726486    1.631953
     13          1           0       -0.816044    0.276742    1.476946
     14          1           0        0.619562    0.912603    2.268277
     15          1           0        0.619568   -1.145501   -1.080005
     16          1           0        0.619549    0.225077   -2.181377
     17          1           0       -0.816066   -0.142278   -1.235023
 ---------------------------------------------------------------------
                    Distance matrix (angstroms):
                    1          2          3          4          5
     1  Si   0.000000
     2  C    1.654792   0.000000
     3  C    1.654788   2.702257   0.000000
     4  C    1.654795   2.702276   2.702247   0.000000
     5  C    1.654788   2.702259   2.702265   2.702266   0.000000
     6  H    2.278038   2.931514   2.931529   3.653107   1.085545
     7  H    2.278063   3.653116   2.931554   2.931551   1.085544
     8  H    2.278038   2.931522   3.653103   2.931530   1.085541
     9  H    2.278048   1.085545   2.931519   2.931541   3.653105
    10  H    2.278057   1.085544   2.931537   3.653124   2.931539
    11  H    2.278058   1.085542   3.653108   2.931559   2.931543
    12  H    2.278052   2.931531   1.085541   2.931522   3.653111
    13  H    2.278044   3.653101   1.085540   2.931512   2.931534
    14  H    2.278050   2.931535   1.085544   3.653100   2.931535
    15  H    2.278041   2.931535   2.931494   1.085545   3.653104
    16  H    2.278067   2.931565   3.653103   1.085538   2.931563
    17  H    2.278058   3.653124   2.931516   1.085547   2.931545
                    6          7          8          9         10
     6  H    0.000000
     7  H    1.758273   0.000000
     8  H    1.758281   1.758268   0.000000
     9  H    3.930252   4.502458   3.930260   0.000000
    10  H    2.744164   3.930283   3.259146   1.758271   0.000000
    11  H    3.259140   3.930290   2.744180   1.758269   1.758271
    12  H    3.930264   3.930294   4.502442   2.744164   3.259148
    13  H    3.259143   2.744198   3.930266   3.930257   3.930273
    14  H    2.744170   3.259155   3.930270   3.259140   2.744187
    15  H    4.502433   3.930285   3.930265   2.744171   3.930271
    16  H    3.930301   3.259178   2.744204   3.259162   3.930310
    17  H    3.930279   2.744203   3.259156   3.930279   4.502466
                   11         12         13         14         15
    11  H    0.000000
    12  H    3.930270   0.000000
    13  H    4.502448   1.758270   0.000000
    14  H    3.930278   1.758273   1.758264   0.000000
    15  H    3.259161   2.744137   3.259103   3.930240   0.000000
    16  H    2.744227   3.930261   3.930257   4.502456   1.758267
    17  H    3.930304   3.259130   2.744149   3.930256   1.758274
                   16         17
    16  H    0.000000
    17  H    1.758273   0.000000
 Stoichiometry    C4H12Si
 Framework group  C1[X(C4H12Si)]
 Deg. of freedom    45
 Full point group                 C1      NOp   1
 Largest Abelian subgroup         C1      NOp   1
 Largest concise Abelian subgroup C1      NOp   1
                         Standard orientation:                         
 ---------------------------------------------------------------------
 Center     Atomic      Atomic             Coordinates (Angstroms)
 Number     Number       Type             X           Y           Z
 ---------------------------------------------------------------------
      1         14           0        0.000004    0.000004   -0.000001
      2          6           0        1.149009   -0.980238   -0.676203
      3          6           0       -0.547915   -0.680530    1.405339
      4          6           0       -1.262336    0.179215   -1.054861
      5          6           0        0.661238    1.481555    0.325724
      6          1           0        1.492849    1.387910    1.017144
      7          1           0       -0.076107    2.142362    0.770765
      8          1           0        1.027996    1.947323   -0.583644
      9          1           0        0.736582   -1.959442   -0.898627
     10          1           0        1.988185   -1.112058   -0.000324
     11          1           0        1.523344   -0.552661   -1.601109
     12          1           0       -0.986654   -1.655084    1.215199
     13          1           0       -1.304030   -0.053278    1.867120
     14          1           0        0.264932   -0.807689    2.113516
     15          1           0       -1.712150   -0.782015   -1.283139
     16          1           0       -0.925441    0.624779   -1.985649
     17          1           0       -2.029538    0.819797   -0.631226
 ---------------------------------------------------------------------
 Rotational constants (GHZ):           3.9035416           3.9035175           3.9034907
 Standard basis: CC-pVDZ (5D, 7F)
 There are   139 symmetry adapted cartesian basis functions of A   symmetry.
 There are   134 symmetry adapted basis functions of A   symmetry.
   134 basis functions,   287 primitive gaussians,   139 cartesian basis functions
    25 alpha electrons       25 beta electrons
       nuclear repulsion energy       272.1042101606 Hartrees.
 NAtoms=   17 NActive=   17 NUniq=   17 SFac= 1.00D+00 NAtFMM=   60 NAOKFM=F Big=F
 Integral buffers will be    131072 words long.
 Raffenetti 2 integral format.
 Two-electron integral symmetry is turned on.
 Nuclear repulsion after empirical dispersion term =      272.0907055156 Hartrees.
 One-electron integrals computed using PRISM.
 NBasis=   134 RedAO= T EigKep=  1.22D-03  NBF=   134
 NBsUse=   134 1.00D-06 EigRej= -1.00D+00 NBFU=   134
 Initial guess from the checkpoint file:  "/scratch/js1212.15076/TMS-GPOF.chk"
 B after Tr=     0.000000    0.000000    0.000000
         Rot=    0.917125    0.053068    0.042516    0.392756 Ang=  46.98 deg.
 ExpMin= 8.77D-02 ExpMax= 7.89D+04 ExpMxC= 2.69D+03 IAcc=2 IRadAn=         4 AccDes= 0.00D+00
 Harris functional with IExCor= 1009 and IRadAn=       4 diagonalized for initial guess.
 HarFok:  IExCor= 1009 AccDes= 0.00D+00 IRadAn=         4 IDoV= 1 UseB2=F ITyADJ=14
 ICtDFT=  3500011 ScaDFX=  1.000000  1.000000  1.000000  1.000000
 FoFCou: FMM=F IPFlag=           0 FMFlag=      100000 FMFlg1=           0
         NFxFlg=           0 DoJE=T BraDBF=F KetDBF=T FulRan=T
         wScrn=  0.000000 ICntrl=       500 IOpCl=  0 I1Cent=   200000004 NGrid=           0
         NMat0=    1 NMatS0=      1 NMatT0=    0 NMatD0=    1 NMtDS0=    0 NMtDT0=    0
 Petite list used in FoFCou.
 Requested convergence on RMS density matrix=1.00D-08 within 128 cycles.
 Requested convergence on MAX density matrix=1.00D-06.
 Requested convergence on             energy=1.00D-06.
 No special actions if energy rises.
 Integral accuracy reduced to 1.0D-05 until final iterations.
 Initial convergence to 1.0D-05 achieved.  Increase integral accuracy.
 SCF Done:  E(RPBE1PBE) =  -448.756303318     A.U. after   11 cycles
            NFock= 11  Conv=0.43D-08     -V/T= 1.9996
 Calling FoFJK, ICntrl=      2127 FMM=F ISym2X=0 I1Cent= 0 IOpClX= 0 NMat=1 NMatS=1 NMatT=0.
 ***** Axes restored to original set *****
 -------------------------------------------------------------------
 Center     Atomic                   Forces (Hartrees/Bohr)
 Number     Number              X              Y              Z
 -------------------------------------------------------------------
      1       14          -0.000021919   -0.000001677   -0.000014770
      2        6           0.126582263    0.000001472    0.000000186
      3        6          -0.042182583   -0.043183805    0.111255968
      4        6          -0.042187234   -0.074748149   -0.093017682
      5        6          -0.042190793    0.117934431   -0.018218714
      6        1           0.001406807    0.010636184    0.006262996
      7        1          -0.011354561    0.004983856   -0.000772521
      8        1           0.001404016    0.008254760   -0.009186109
      9        1           0.008536091   -0.008918000    0.001376546
     10        1           0.008543309    0.005653279    0.007034463
     11        1           0.008545624    0.003266699   -0.008413634
     12        1           0.001407466   -0.010742318    0.006082782
     13        1          -0.011357749   -0.001827257    0.004699022
     14        1           0.001406231    0.003826162    0.011739559
     15        1           0.001406703   -0.012087003   -0.002558320
     16        1           0.001409283    0.000109111   -0.012340552
     17        1          -0.011352953   -0.003157746   -0.003929221
 -------------------------------------------------------------------
 Cartesian Forces:  Max     0.126582263 RMS     0.035956908

 GradGradGradGradGradGradGradGradGradGradGradGradGradGradGradGradGradGrad
 Berny optimization.
 Using GEDIIS/GDIIS optimizer.
 FormGI is forming the generalized inverse of G from B-inverse, IUseBI=4.
 Internal  Forces:  Max     0.152207287 RMS     0.033999549
 Search for a local minimum.
 Step number   3 out of a maximum of   92
 All quantities printed in internal units (Hartrees-Bohrs-Radians)
 Mixed Optimization -- RFO/linear search
 Update second derivatives using D2CorX and points    2    3
 ITU=  0  1  0
 Use linear search instead of GDIIS.
 Linear search step of   1.200 exceeds DXMaxT=   0.505 scaled by   0.841
 Quartic linear search produced a step of  1.68180.
 Iteration  1 RMS(Cart)=  0.10851086 RMS(Int)=  0.06574250
 Iteration  2 RMS(Cart)=  0.08834713 RMS(Int)=  0.02157048
 Iteration  3 RMS(Cart)=  0.04313791 RMS(Int)=  0.00025378
 Iteration  4 RMS(Cart)=  0.00000000 RMS(Int)=  0.00025378
 Variable       Old X    -DE/DX   Delta X   Delta X   Delta X     New X
                                 (Linear)    (Quad)   (Total)
    R1        3.12710   0.15221   0.49747   0.00000   0.49747   3.62457
    R2        3.12710   0.15220   0.49746   0.00000   0.49746   3.62456
    R3        3.12711   0.15219   0.49747   0.00000   0.49747   3.62457
    R4        3.12710   0.15220   0.49745   0.00000   0.49745   3.62455
    R5        2.05138   0.01146   0.03293   0.00000   0.03293   2.08432
    R6        2.05138   0.01147   0.03293   0.00000   0.03293   2.08431
    R7        2.05138   0.01147   0.03292   0.00000   0.03292   2.08430
    R8        2.05138   0.01146   0.03294   0.00000   0.03294   2.08431
    R9        2.05137   0.01147   0.03293   0.00000   0.03293   2.08430
   R10        2.05138   0.01147   0.03293   0.00000   0.03293   2.08432
   R11        2.05138   0.01147   0.03292   0.00000   0.03292   2.08430
   R12        2.05137   0.01146   0.03293   0.00000   0.03293   2.08430
   R13        2.05139   0.01146   0.03294   0.00000   0.03294   2.08433
   R14        2.05138   0.01146   0.03293   0.00000   0.03293   2.08431
   R15        2.05138   0.01146   0.03293   0.00000   0.03293   2.08431
   R16        2.05138   0.01147   0.03293   0.00000   0.03293   2.08430
    A1        1.91063  -0.00000  -0.00000   0.00000  -0.00000   1.91063
    A2        1.91064  -0.00000   0.00001   0.00000   0.00001   1.91065
    A3        1.91063   0.00000  -0.00001   0.00000  -0.00001   1.91063
    A4        1.91062   0.00001  -0.00002   0.00000  -0.00002   1.91060
    A5        1.91064  -0.00000   0.00000   0.00000   0.00000   1.91065
    A6        1.91064  -0.00000   0.00001   0.00000   0.00001   1.91065
    A7        1.93292   0.00468   0.02490   0.00000   0.02441   1.95733
    A8        1.93294   0.00470   0.02491   0.00000   0.02442   1.95735
    A9        1.93294   0.00470   0.02491   0.00000   0.02442   1.95736
   A10        1.88782  -0.00491  -0.02568   0.00000  -0.02612   1.86169
   A11        1.88781  -0.00491  -0.02567   0.00000  -0.02612   1.86169
   A12        1.88782  -0.00491  -0.02568   0.00000  -0.02613   1.86169
   A13        1.93294   0.00469   0.02490   0.00000   0.02442   1.95735
   A14        1.93293   0.00469   0.02489   0.00000   0.02440   1.95733
   A15        1.93293   0.00470   0.02490   0.00000   0.02441   1.95734
   A16        1.88782  -0.00491  -0.02567   0.00000  -0.02612   1.86171
   A17        1.88782  -0.00491  -0.02567   0.00000  -0.02611   1.86171
   A18        1.88781  -0.00491  -0.02567   0.00000  -0.02611   1.86170
   A19        1.93291   0.00471   0.02489   0.00000   0.02440   1.95731
   A20        1.93295   0.00468   0.02492   0.00000   0.02443   1.95738
   A21        1.93293   0.00469   0.02489   0.00000   0.02440   1.95733
   A22        1.88782  -0.00491  -0.02568   0.00000  -0.02613   1.86169
   A23        1.88782  -0.00491  -0.02567   0.00000  -0.02611   1.86170
   A24        1.88782  -0.00490  -0.02568   0.00000  -0.02612   1.86170
   A25        1.93291   0.00469   0.02489   0.00000   0.02440   1.95731
   A26        1.93295   0.00469   0.02492   0.00000   0.02443   1.95738
   A27        1.93292   0.00470   0.02489   0.00000   0.02440   1.95732
   A28        1.88782  -0.00491  -0.02567   0.00000  -0.02612   1.86170
   A29        1.88783  -0.00491  -0.02566   0.00000  -0.02611   1.86172
   A30        1.88782  -0.00491  -0.02567   0.00000  -0.02612   1.86170
    D1        1.04719   0.00000  -0.00001   0.00000  -0.00001   1.04718
    D2       -1.04720   0.00000  -0.00000   0.00000  -0.00000  -1.04720
    D3        3.14158   0.00000  -0.00000   0.00000  -0.00000   3.14157
    D4       -1.04719  -0.00000   0.00001   0.00000   0.00001  -1.04718
    D5       -3.14158   0.00000   0.00002   0.00000   0.00002  -3.14156
    D6        1.04720  -0.00000   0.00001   0.00000   0.00001   1.04721
    D7        3.14159   0.00000  -0.00001   0.00000  -0.00001   3.14158
    D8        1.04720   0.00000  -0.00000   0.00000  -0.00000   1.04720
    D9       -1.04721  -0.00000  -0.00000   0.00000  -0.00000  -1.04721
   D10       -1.04719   0.00000  -0.00000   0.00000  -0.00000  -1.04719
   D11        3.14159   0.00000   0.00000   0.00000   0.00000   3.14159
   D12        1.04721   0.00000   0.00001   0.00000   0.00001   1.04722
   D13        1.04720  -0.00000  -0.00000   0.00000  -0.00000   1.04720
   D14       -1.04720   0.00000  -0.00000   0.00000  -0.00000  -1.04720
   D15       -3.14158   0.00000   0.00000   0.00000   0.00000  -3.14158
   D16       -3.14159  -0.00000   0.00000   0.00000   0.00000  -3.14158
   D17        1.04719   0.00000   0.00001   0.00000   0.00001   1.04720
   D18       -1.04719   0.00000   0.00001   0.00000   0.00001  -1.04717
   D19        1.04720  -0.00000  -0.00000   0.00000  -0.00000   1.04720
   D20       -1.04719  -0.00000  -0.00000   0.00000  -0.00000  -1.04720
   D21        3.14158   0.00000  -0.00001   0.00000  -0.00001   3.14157
   D22       -1.04719  -0.00000   0.00001   0.00000   0.00001  -1.04718
   D23       -3.14158  -0.00000   0.00000   0.00000   0.00000  -3.14157
   D24        1.04719   0.00000   0.00000   0.00000   0.00000   1.04719
   D25       -3.14158   0.00000   0.00000   0.00000   0.00000  -3.14158
   D26        1.04721  -0.00000   0.00000   0.00000   0.00000   1.04721
   D27       -1.04720   0.00000  -0.00000   0.00000  -0.00000  -1.04721
   D28       -1.04719  -0.00000   0.00001   0.00000   0.00001  -1.04718
   D29       -3.14159  -0.00000   0.00001   0.00000   0.00001  -3.14158
   D30        1.04720   0.00000  -0.00000   0.00000  -0.00000   1.04720
   D31        1.04720  -0.00000   0.00000   0.00000   0.00000   1.04721
   D32       -1.04719  -0.00000   0.00000   0.00000   0.00000  -1.04719
   D33       -3.14159  -0.00000  -0.00000   0.00000  -0.00000  -3.14159
   D34        3.14159   0.00000  -0.00001   0.00000  -0.00001   3.14158
   D35        1.04719   0.00000  -0.00001   0.00000  -0.00001   1.04718
   D36       -1.04720   0.00000  -0.00001   0.00000  -0.00001  -1.04722
         Item               Value     Threshold  Converged?
 Maximum Force            0.152207     0.000450     NO 
 RMS     Force            0.034000     0.000300     NO 
 Maximum Displacement     0.556502     0.001800     NO 
 RMS     Displacement     0.239607     0.001200     NO 
 Predicted change in Energy=-7.279054D-02
 GradGradGradGradGradGradGradGradGradGradGradGradGradGradGradGradGradGrad

                          Input orientation:                          
 ---------------------------------------------------------------------
 Center     Atomic      Atomic             Coordinates (Angstroms)
 Number     Number       Type             X           Y           Z
 ---------------------------------------------------------------------
      1         14           0        0.820817    0.850145   -0.000012
      2          6           0        2.738857    0.850160    0.000001
      3          6           0        0.181476    0.195674    1.685741
      4          6           0        0.181456   -0.282581   -1.409635
      5          6           0        0.181477    2.637276   -0.276124
      6          1           0        0.524476    3.328040    0.512380
      7          1           0       -0.920289    2.688210   -0.283988
      8          1           0        0.524471    3.057865   -1.236330
      9          1           0        3.154664   -0.159454    0.155994
     10          1           0        3.154665    1.490048    0.796357
     11          1           0        3.154684    1.219869   -0.952330
     12          1           0        0.524463   -0.832574    1.889734
     13          1           0       -0.920285    0.177031    1.733731
     14          1           0        0.524436    0.816937    2.530109
     15          1           0        0.524446   -1.324436   -1.293743
     16          1           0        0.524406    0.054816   -2.402148
     17          1           0       -0.920320   -0.314844   -1.449747
 ---------------------------------------------------------------------
                    Distance matrix (angstroms):
                    1          2          3          4          5
     1  Si   0.000000
     2  C    1.918040   0.000000
     3  C    1.918033   3.132135   0.000000
     4  C    1.918042   3.132168   3.132104   0.000000
     5  C    1.918028   3.132128   3.132145   3.132157   0.000000
     6  H    2.547612   3.362426   3.362461   4.104678   1.102969
     7  H    2.547662   4.104684   3.362508   3.362517   1.102971
     8  H    2.547613   3.362437   4.104665   3.362480   1.102967
     9  H    2.547639   1.102973   3.362452   3.362487   4.104664
    10  H    2.547651   1.102967   3.362478   4.104702   3.362469
    11  H    2.547654   1.102964   4.104675   3.362524   3.362478
    12  H    2.547648   3.362474   1.102971   3.362437   4.104685
    13  H    2.547623   4.104662   1.102964   3.362413   3.362469
    14  H    2.547638   3.362472   1.102972   4.104651   3.362469
    15  H    2.547621   3.362477   3.362392   1.102966   4.104672
    16  H    2.547679   3.362541   4.104666   1.102967   3.362541
    17  H    2.547644   4.104702   3.362420   1.102978   3.362493
                    6          7          8          9         10
     6  H    0.000000
     7  H    1.769444   0.000000
     8  H    1.769458   1.769444   0.000000
     9  H    4.382637   4.990793   4.382650   0.000000
    10  H    3.221297   4.382693   3.675294   1.769441   0.000000
    11  H    3.675290   4.382706   3.221321   1.769439   1.769435
    12  H    4.382671   4.382727   4.990770   3.221320   3.675325
    13  H    3.675308   3.221367   4.382668   4.382658   4.382682
    14  H    3.221315   3.675328   4.382673   3.675304   3.221348
    15  H    4.990752   4.382714   4.382676   3.221330   4.382680
    16  H    4.382747   3.675393   3.221403   3.675358   4.382760
    17  H    4.382691   3.221386   3.675341   4.382698   4.990804
                   11         12         13         14         15
    11  H    0.000000
    12  H    4.382683   0.000000
    13  H    4.990772   1.769445   0.000000
    14  H    4.382687   1.769454   1.769440   0.000000
    15  H    3.675350   3.221250   3.675221   4.382616   0.000000
    16  H    3.221441   4.382661   4.382644   4.990791   1.769434
    17  H    4.382742   3.675266   3.221254   4.382637   1.769452
                   16         17
    16  H    0.000000
    17  H    1.769449   0.000000
 Stoichiometry    C4H12Si
 Framework group  C1[X(C4H12Si)]
 Deg. of freedom    45
 Full point group                 C1      NOp   1
 Largest Abelian subgroup         C1      NOp   1
 Largest concise Abelian subgroup C1      NOp   1
                         Standard orientation:                         
 ---------------------------------------------------------------------
 Center     Atomic      Atomic             Coordinates (Angstroms)
 Number     Number       Type             X           Y           Z
 ---------------------------------------------------------------------
      1         14           0        0.000008    0.000009   -0.000005
      2          6           0        1.181931   -1.386426   -0.599785
      3          6           0       -0.753614   -0.490847    1.694093
      4          6           0       -1.407619    0.238652   -1.280833
      5          6           0        0.979296    1.638615    0.186529
      6          1           0        1.802373    1.550420    0.915437
      7          1           0        0.339518    2.468546    0.530686
      8          1           0        1.432910    1.962547   -0.765226
      9          1           0        0.662354   -2.351617   -0.722237
     10          1           0        2.010779   -1.560739    0.106729
     11          1           0        1.641330   -1.148639   -1.573921
     12          1           0       -1.328302   -1.430535    1.636957
[...]
   yx        -0.261639D-03     -0.387709D-04     -0.431385D-04
   yy         0.685213D+02      0.101538D+02      0.112976D+02
   zx        -0.354876D-04     -0.525871D-05     -0.585111D-05
   zy        -0.408435D-03     -0.605239D-04     -0.673419D-04
   zz         0.685214D+02      0.101538D+02      0.112976D+02

 ----------------------------------------------------------------------
 1\1\GINC-NODE041\Freq\RPBE1PBE\CC-pVDZ\C4H12Si1\JS1212\10-Nov-2018\0\\
 #N Geom=AllCheck Guess=TCheck SCRF=Check GenChk RPBE1PBE/CC-pVDZ Freq\
 \Title Card Required\\0,1\Si,0.8208149734,0.8501248545,0.000019338\C,2
 .7089148337,0.8501371502,-0.0000159031\C,0.1914586376,0.2059056513,1.6
 59469575\C,0.1914536268,-0.2648875077,-1.3876342246\C,0.1914446202,2.6
 093539518,-0.2718117196\H,0.5434023648,3.2851191034,0.5244733055\H,-0.
 9101716086,2.6413144441,-0.2767677051\H,0.5434258947,3.0132615399,-1.2
 349168804\H,3.1065798691,-0.1656565734,0.1569260451\H,3.1066264925,1.4
 939459326,0.8012021246\H,3.106606493,1.2221066945,-0.9581818239\H,0.54
 3426498,-0.8215725557,1.8465681339\H,-0.9101617027,0.194202533,1.68958
 76\H,0.5434009762,0.8380308736,2.490828479\H,0.5433989187,-1.300934366
 6,-1.2559176368\H,0.5434422402,0.0868617938,-2.3709872944\H,-0.9101631
 276,-0.2851335191,-1.4128514131\\Version=ES64L-G16RevA.03\State=1-A\HF
 =-448.871247\RMSD=3.271e-10\RMSF=2.168e-04\ZeroPoint=0.1469799\Thermal
 =0.1563636\Dipole=-0.0000094,0.0000036,0.0000215\DipoleDeriv=1.3853317
 ,-0.0000475,-0.0000053,-0.0000196,1.3853147,-0.0000487,-0.0000249,-0.0
 000496,1.385338,-0.5097674,0.000024,0.0000052,-0.0000075,-0.2836585,0.
 0000158,0.0000211,0.000007,-0.2836623,-0.3088071,-0.0257174,0.0662527,
 -0.025717,-0.3100032,0.0678249,0.0662496,0.067812,-0.4583537,-0.308783
 4,-0.0444954,-0.0553836,-0.0444988,-0.3625056,-0.0981246,-0.0553986,-0
 .0981249,-0.4057851,-0.3087746,0.0702303,-0.0108637,0.0702338,-0.47997
 83,0.0303488,-0.0108668,0.0303408,-0.288358,0.0631542,-0.0234029,-0.02
 38182,-0.0392605,-0.0461289,-0.1057613,-0.029975,-0.0816936,-0.0043168
 ,-0.1182835,0.0319986,-0.0049478,0.0611339,0.0584629,0.0022351,-0.0094
 43,0.00223,0.0725261,0.0631556,-0.0151106,0.0297611,-0.0283831,0.01161
 11,0.1007156,0.0404325,0.0766556,-0.0620684,0.0089188,0.1055617,-0.016
 316,0.076433,-0.0657671,0.0214167,-0.0118072,0.021421,0.0695578,0.0088
 967,-0.0669073,-0.083269,-0.0484519,0.0171826,-0.0693074,-0.0602846,-0
 .0693052,-0.0133833,0.0088881,-0.0386512,0.0995907,-0.0279883,0.054282
 2,0.0478748,0.0720947,0.0478816,-0.0504802,0.0631578,0.0323264,-0.0083
 572,0.0455886,-0.0959346,0.0529297,-0.0190142,0.0770013,0.0454977,-0.1
 182817,-0.0117192,0.0301793,-0.0223861,0.0709353,0.0049767,0.0576522,0
 .0049844,0.0600445,0.063164,-0.0182238,-0.0279754,-0.020821,0.0331553,
 -0.0642203,-0.0447934,-0.0882811,-0.0836048,0.0631655,0.0333392,-0.001
 7906,0.0492075,-0.1204499,-0.0004064,0.0043764,-0.0244757,0.07,0.06315
 02,-0.0089316,0.0321791,-0.0063306,0.0663942,0.0167366,0.0489912,0.040
 8022,-0.1168512,-0.1182848,-0.020273,-0.0252415,-0.0387323,0.0670878,-
 0.007206,-0.0482099,-0.0072061,0.0639\Polar=68.5210807,-0.0000952,68.5
 212105,-0.0001641,-0.0004611,68.521434\Quadrupole=-0.0000059,0.0000197
 ,-0.0000138,0.0000284,-0.0000561,-0.0000412\PG=C01 [X(C4H12Si1)]\NImag
 =0\\0.33891712,0.00000493,0.33884246,-0.00005299,-0.00006432,0.3388841
 9,-0.15510227,-0.00000342,-0.00000137,0.38690920,-0.00001146,-0.039497
 71,0.00000357,0.00000696,0.51846612,0.00002662,0.00001720,-0.03953693,
 -0.00000719,-0.00001254,0.51845892,-0.05239213,-0.01315590,0.03388830,
 -0.00419279,-0.00680976,0.01754156,0.50385699,-0.01314623,-0.05297853,
 0.03467524,0.00023820,0.00232245,0.00003914,-0.01498055,0.50315433,0.0
 3387222,0.03466080,-0.12880418,-0.00061370,0.00003856,0.00223831,0.038
 53813,0.03944451,0.41682918,-0.05234910,-0.02274363,-0.02831207,-0.004
 21206,-0.01180663,-0.01468731,0.00444143,0.00379877,0.00510607,0.50383
 189,-0.02275464,-0.07980518,-0.05015855,0.00041372,0.00229219,-0.00005
 663,0.00208009,0.00614634,0.00536812,-0.02588760,0.47255054,-0.0283057
 0,-0.05014465,-0.10192211,0.00051056,-0.00005946,0.00226457,-0.0060162
 1,-0.01055735,-0.01023878,-0.03224661,-0.05710985,0.44736786,-0.052339
 63,0.03588381,-0.00553578,-0.00421490,0.01862804,-0.00287452,0.0044401
 9,-0.00624776,0.00120499,0.00444265,-0.00632264,0.00073601,0.50384232,
 0.03589247,-0.13984431,0.01550168,-0.00064589,0.00221933,0.00001784,0.
 00252271,-0.00389617,0.00043130,0.00417094,-0.00838341,0.00216339,0.04
 085043,0.40424090,-0.00554100,0.01551348,-0.04190967,0.00009746,0.0000
 2155,0.00233570,-0.00584192,0.01634773,-0.00019591,0.00481063,-0.01375
 682,0.00429521,-0.00631614,0.01763007,0.51572721,0.00091474,0.00394497
 ,0.00638894,0.00015423,-0.00076563,0.00001309,-0.00010430,-0.00057137,
 -0.00001289,-0.00044616,0.00186451,-0.00050590,-0.06608304,-0.05322452
 ,-0.06020870,0.07190913,-0.00911536,-0.00865946,-0.01630786,-0.0001224
 5,0.00126787,0.00058959,0.00004161,0.00137861,0.00043296,0.00236139,-0
 .00443334,0.00171945,-0.06122309,-0.14567698,-0.13388910,0.06099600,0.
 15039445,0.00131975,0.00350557,0.00107375,0.00025937,-0.00035404,-0.00
 002298,0.00022914,-0.00053489,0.00012628,-0.00031310,0.00096612,0.0002
 6437,-0.06331330,-0.12175365,-0.18332620,0.06982665,0.13480866,0.19975
 748,-0.00702383,-0.00371073,0.00057005,0.00034406,0.00188891,-0.000291
 97,0.00044296,0.00002964,-0.00000983,0.00044259,0.00003746,0.00000151,
 -0.32092472,0.00475157,-0.00074136,-0.00872329,0.00197318,0.00123180,0
 .34359299,0.02026765,0.00252353,-0.00072979,0.00097663,-0.00519038,0.0
 0085858,-0.00111807,0.00102611,-0.00034160,-0.00112147,0.00112514,-0.0
 0003804,0.01943856,-0.03431360,-0.00086959,-0.01986636,-0.00052597,0.0
 0098450,-0.00675685,0.03710940,-0.00312947,-0.00074065,-0.00217691,-0.
 00015112,0.00085815,0.00023184,0.00017749,-0.00035631,-0.00006571,0.00
 016587,-0.00002300,-0.00016832,-0.00300713,-0.00086751,-0.03989422,-0.
 02280509,0.00237627,-0.00041117,0.00105142,0.00066209,0.04140487,0.000
 87905,0.00182488,-0.00727180,0.00015446,-0.00073376,0.00021793,-0.0004
 4612,0.00193065,-0.00008023,-0.00010414,-0.00053986,0.00018414,-0.0660
 8988,-0.03256032,0.07346352,0.00192950,0.00475427,-0.00920797,-0.00872
 336,-0.01205461,0.02773861,0.07195038,-0.00907391,-0.00409709,0.017947
 28,-0.00019475,0.00108766,-0.00094336,0.00234569,-0.00477833,-0.000123
 15,-0.00002735,0.00129141,-0.00079893,-0.03925276,-0.07555305,0.099762
 51,0.00731135,0.00644341,-0.01780378,0.00151040,-0.00148183,-0.0020374
 8,0.03706627,0.07732158,0.00148464,-0.00186151,-0.00349531,-0.00020944
 ,0.00000153,0.00016393,-0.00041408,0.00063030,0.00060937,-0.00023038,0
 .00016415,0.00021133,0.07883697,0.08763226,-0.25345506,0.00734332,0.01
 005569,-0.01803210,-0.00176870,-0.00064685,0.00054554,-0.08498295,-0.0
 9605137,0.27283604,-0.00367932,0.02142879,-0.00330699,-0.07372835,0.10
 580365,-0.01633638,0.00137673,-0.00081199,-0.00002616,0.00137507,-0.00
 077170,0.00026871,-0.00560562,-0.00110158,0.00017019,0.00018477,-0.000
 28487,0.00018460,-0.00052724,0.00183702,-0.00028374,0.00018453,-0.0003
 2711,-0.00009006,0.07535009,-0.00254204,-0.00072247,-0.00024040,0.0911
 0807,-0.27576012,0.03642410,0.00033715,0.00014531,-0.00010615,0.000386
 09,0.00018074,0.00000899,-0.00018923,0.00061928,-0.00003934,-0.0001155
 7,0.00012309,0.00003318,-0.00010004,0.00009985,0.00003690,-0.00006544,
 0.00002656,-0.00002995,-0.10046656,0.29909735,0.00038214,-0.00024343,-
 0.00225261,-0.01405602,0.03642432,-0.04563872,-0.00022311,-0.00009986,
 -0.00011892,0.00010636,0.00000106,-0.00015731,0.00002915,-0.00003922,0
 .00037043,-0.00014901,0.00027577,0.00003694,0.00001544,0.00003683,0.00
 033291,0.00017676,-0.00027221,0.00013363,0.01550870,-0.03980359,0.0476
 4264,-0.00370867,-0.01358976,-0.01690010,-0.07371238,-0.06705572,-0.08
 345524,0.00137965,0.00061885,0.00053471,-0.00560478,0.00069852,0.00086
 902,0.00137175,0.00038858,0.00071929,-0.00034403,0.00082318,0.00007145
 ,0.00021261,-0.00024734,0.00036243,0.00003598,-0.00012725,0.00006455,0
 .00263776,0.00734072,0.00966653,0.07534858,0.00160425,-0.00165884,0.00
 078966,-0.05774216,-0.13471723,-0.11784795,-0.00009698,-0.00007685,0.0
 0014667,0.00012039,0.00046719,0.00012744,-0.00035735,0.00003244,0.0001
 6193,0.00009990,-0.00001089,-0.00007856,-0.00008191,0.00005975,-0.0000
 5767,0.00005313,0.00000474,0.00003285,-0.01194056,-0.01536041,-0.02096
 007,0.06367868,0.14497830,0.00201303,0.00078335,-0.00131961,-0.0718687
 0,-0.11784466,-0.18666707,-0.00038723,0.00014054,0.00010034,0.00014985
 ,0.00012744,0.00052303,-0.00018430,0.00017174,-0.00000791,-0.00017471,
 0.00017228,0.00012178,0.00000296,0.00014792,0.00007222,-0.00003253,-0.
 00006034,-0.00003249,0.00218100,0.00411507,0.00306497,0.07924355,0.128
 77310,0.20175321,-0.00372383,-0.00782636,0.02021130,-0.07370564,-0.038
 75437,0.09979938,-0.00560492,0.00040326,-0.00103970,0.00138055,0.00043
 029,-0.00069470,0.00137677,0.00014859,-0.00080086,0.00003593,-0.000141
 04,-0.00002357,0.00021288,-0.00034458,-0.00027052,-0.00034540,0.000755
 23,-0.00030611,0.00263695,0.00408146,-0.01143184,0.00263976,0.00469865
 ,-0.01118910,0.07535442,0.00092958,-0.00211124,-0.00052535,-0.03337434
 ,-0.07162632,0.08142335,0.00006997,0.00039875,-0.00008802,0.00002692,-
 0.00014130,-0.00006907,-0.00028689,-0.00006440,-0.00014682,0.00006029,
 0.00000961,-0.00004546,-0.00007929,0.00003473,0.00006935,0.00015400,-0
 .00002427,0.00012340,-0.01204217,-0.00883345,0.02472646,0.00785668,0.0
 0575419,-0.01630790,0.03679529,0.07606039,-0.00238908,-0.00054131,-0.0
 0089866,0.08594069,0.08142648,-0.24976209,-0.00017983,-0.00008825,0.00
 059144,0.00040008,-0.00006267,0.00016763,0.00028065,-0.00015222,0.0000
 9257,0.00001373,0.00004790,-0.00003612,0.00002170,-0.00013607,0.000097
 09,0.00013132,-0.00011737,0.00013574,0.00152377,-0.00034765,-0.0034609
 8,0.00925016,0.00876969,-0.01804895,-0.09477088,-0.08898415,0.27069504
 ,0.00091777,-0.00749871,0.00021494,0.00016010,0.00037063,-0.00067256,-
 0.06609091,0.07874863,-0.01598550,-0.00010427,0.00029766,-0.00049013,-
 0.00044607,-0.00049394,0.00186780,-0.00008530,0.00031268,-0.00008526,0
 .00014739,-0.00013125,0.00013718,0.00046425,-0.00055243,0.00021590,-0.
 00035488,0.00010048,0.00018321,0.00003687,-0.00004172,0.00004462,0.000
 18469,0.00018688,-0.00002552,0.07191498,0.00341440,-0.00689676,-0.0024
 9787,-0.00016121,0.00040041,-0.00014732,0.08544543,-0.28462326,0.04155
 064,-0.00021957,0.00039564,-0.00003476,-0.00090944,0.00025289,0.001739
 45,-0.00004678,0.00031125,-0.00012675,0.00003160,0.00010391,-0.0000419
 9,0.00032974,-0.00046649,0.00004869,-0.00047687,0.00012778,0.00016441,
 0.00009155,-0.00002391,0.00002589,-0.00001730,0.00019242,0.00000675,-0
 .09096975,0.30416959,-0.00855783,0.01731599,-0.00067429,-0.00023868,-0
 .00108805,0.00084408,-0.02136012,0.05367896,-0.04439829,-0.00007686,-0
 .00099867,0.00110325,0.00220153,0.00098615,-0.00442184,0.00017463,-0.0
 0008091,0.00011870,0.00003516,-0.00044398,0.00009379,-0.00049299,0.001
 64920,-0.00009222,0.00068479,-0.00008843,-0.00002198,-0.00011143,-0.00
 006788,-0.00000231,-0.00033902,-0.00023601,-0.00003229,0.01791010,-0.0
 4603877,0.04598596,-0.00702638,0.00135954,-0.00349229,0.00034405,-0.00
 069142,0.00178109,-0.32090842,-0.00172721,0.00445925,0.00044262,-0.000
 00582,0.00003446,0.00044094,-0.00002284,0.00003421,-0.00002980,0.00008
 340,-0.00000275,0.00021962,-0.00034170,0.00015594,0.00014730,0.0000273
 9,0.00003845,0.00021255,0.00003838,-0.00007247,0.00021281,0.00002066,-
 0.00007948,-0.00052730,0.00003668,-0.00009440,-0.00872312,-0.00205310,
 0.00109281,0.34358054,-0.00741872,-0.00164735,-0.00166735,-0.00035740,
 -0.00038052,0.00191904,-0.00710604,-0.03924134,-0.00197149,0.00040392,
 -0.00009568,-0.00029065,0.00041360,0.00013041,-0.00055233,-0.00007577,
 0.00003626,0.00003714,0.00023884,-0.00032131,0.00028908,0.00016206,0.0
 0019610,-0.00002131,-0.00019021,0.00010826,0.00008575,0.00040711,0.000
 05257,-0.00005926,-0.00067280,0.00030663,0.00008245,0.02968253,0.00101
 609,-0.00148530,0.00245454,0.04089558,0.01912534,-0.00165190,0.0019895
 6,0.00092155,0.00191901,-0.00457890,0.01831534,-0.00197340,-0.03492675
 ,-0.00105994,-0.00030679,0.00105257,-0.00105283,-0.00053821,0.00082773
 ,-0.00002232,-0.00012006,0.00000243,-0.00030748,0.00058406,-0.00012943
 ,-0.00009872,-0.00042351,0.00000101,-0.00039537,-0.00012004,0.00002386
 ,-0.00016339,0.00014650,0.00007939,0.00173309,0.00008245,0.00012624,-0
 .00580146,-0.00009492,-0.00195080,-0.00635311,0.00151521,0.03757797,0.
 00090753,0.00538923,0.00523261,0.00015257,0.00017735,-0.00074600,-0.06
 609257,-0.04732707,-0.06493303,-0.00044623,-0.00089557,0.00171150,-0.0
 0010380,0.00011015,-0.00055969,0.00016112,-0.00005633,-0.00004584,-0.0
 0002990,-0.00000535,-0.00007878,-0.00008523,0.00018065,-0.00000805,0.0
 0003658,0.00000021,0.00006145,-0.00034797,-0.00019282,0.00005977,0.000
 18474,-0.00012069,-0.00014487,0.00192991,0.00559476,0.00872016,-0.0087
 2292,-0.01799527,-0.02430890,0.07192952,0.00325238,0.00331770,0.006146
 77,0.00027856,-0.00001278,-0.00063492,-0.04864218,-0.12784365,-0.11782
 670,-0.00081410,-0.00051791,0.00182919,0.00021379,0.00020430,-0.000791
 03,-0.00002847,-0.00030032,0.00006541,-0.00002065,0.00002148,0.0000339
 6,-0.00015059,0.00017126,-0.00015753,0.00000851,-0.00003480,-0.0000565
 8,-0.00010719,0.00009404,-0.00005486,0.00024164,-0.00002410,0.00000076
 ,-0.01001580,-0.01526798,-0.02259012,0.00077765,-0.00112211,0.00085218
 ,0.05504762,0.14078817,-0.00861261,-0.01366672,-0.01091016,-0.00006267
 ,0.00030731,0.00126288,-0.07340873,-0.12995671,-0.20117251,0.00223860,
 0.00258308,-0.00365101,0.00009128,0.00017467,0.00129994,-0.00006922,0.
 00086687,-0.00009943,0.00008132,-0.00012388,0.00001801,0.00028706,-0.0
 0011168,0.00025863,-0.00014297,0.00003790,0.00000769,0.00081485,0.0001
 9446,0.00001582,-0.00023846,0.00024332,0.00018409,0.00265977,0.0052701
 0,0.00368057,0.00219161,0.00224199,0.00018739,0.07459156,0.13269193,0.
 20937647,0.00091938,-0.00721973,0.00205541,0.00015117,0.00055446,0.000
 52387,-0.00010395,0.00043019,0.00037613,-0.06609571,0.07989878,-0.0085
 2408,-0.00044621,-0.00103486,-0.00163154,0.00046432,-0.00059182,-0.000
 03911,0.00014741,-0.00016643,-0.00009106,-0.00008523,0.00032378,-0.000
 01312,-0.00034848,0.00004688,-0.00019649,0.00018462,0.00018566,-0.0000
 3217,0.00003577,-0.00005395,-0.00003062,0.00016422,0.00006872,-0.00002
 852,-0.00003036,0.00007163,0.00003433,-0.00008511,-0.00008337,0.000160
 38,0.07192017,0.00584433,-0.01060525,0.00563110,-0.00008675,0.00079850
 ,0.00015955,-0.00018648,0.00075808,0.00014469,0.08789283,-0.29012874,0
 .03624579,-0.00153132,-0.00095695,-0.00283634,0.00046316,-0.00092094,0
 .00021369,0.00001957,0.00024239,-0.00000538,-0.00009723,0.00035325,0.0
 0005240,-0.00065339,0.00009808,-0.00019328,0.00008554,0.00023758,-0.00
 009223,0.00011911,-0.00001103,-0.00002395,0.00007401,0.00025646,-0.000
 54377,-0.00005957,-0.00002053,0.00009967,-0.00017328,0.00012022,0.0000
 8216,-0.09212754,0.30713747,0.00713032,-0.01417894,0.00301449,0.000272
 40,0.00110477,0.00044740,0.00014024,0.00111019,0.00074400,-0.00542045,
 0.02411104,-0.03887734,-0.00182435,-0.00208291,-0.00321175,0.00037046,
 -0.00138686,0.00036229,-0.00004304,0.00039688,-0.00004532,-0.00015245,
 0.00000651,0.00007653,-0.00050791,0.00005463,0.00001704,0.00032836,0.0
 0015028,-0.00007776,0.00007876,0.00007033,-0.00001604,0.00000855,0.000
 25836,-0.00065020,-0.00005750,-0.00005904,0.00005987,-0.00027380,0.000
 12804,0.00030968,0.01037707,-0.03663766,0.04301180,0.00091426,0.003561
 36,-0.00661094,0.00015475,0.00039596,0.00065770,-0.00044620,-0.0013704
 2,-0.00136189,-0.06607982,-0.02553575,0.07620232,-0.00010370,0.0002752
 6,0.00050129,-0.00008525,0.00017463,-0.00004687,-0.00002985,0.00001849
 ,0.00007669,0.00016375,-0.00004518,0.00006176,0.00003617,-0.00001904,-
 0.00005832,0.00018469,-0.00007126,0.00017454,-0.00034811,-0.00020265,0
 .00000358,-0.00008524,-0.00008260,0.00031347,0.00014737,-0.00005312,-0
 .00018221,0.00046432,0.00008922,-0.00058637,0.00193034,0.00270457,-0.0
 1000249,0.07190566,0.00570723,0.00418952,-0.01091638,0.00028533,0.0001
 9765,0.00097175,-0.00145175,-0.00207272,-0.00232881,-0.02423074,-0.063
 22215,0.07415114,0.00017668,0.00048152,0.00105105,-0.00023016,0.000256
 72,0.00015822,-0.00004387,0.00004693,-0.00004330,-0.00000724,-0.000552
 08,0.00008154,0.00005087,-0.00002548,0.00006663,0.00030224,-0.00007536
 ,0.00008123,-0.00035447,0.00004949,0.00004473,-0.00012786,0.00007694,-
 0.00005436,-0.00004621,-0.00011434,0.00031826,0.00026203,0.00054939,-0
 .00106259,-0.01035166,-0.00855848,0.02646461,0.02997914,0.07066548,0.0
 0723490,0.00889205,-0.01176571,-0.00002264,0.00003062,0.00105097,-0.00
 188832,-0.00308246,-0.00209600,0.08468504,0.08629039,-0.26578000,-0.00
 015126,0.00008455,0.00102298,-0.00022817,0.00011232,0.00017325,-0.0000
 7076,0.00011396,-0.00000821,0.00007599,-0.00072536,0.00015381,0.000133
 48,-0.00002776,-0.00000116,0.00015431,-0.00016112,0.00023521,-0.000750
 79,-0.00020504,0.00006332,-0.00012788,-0.00000859,0.00035287,0.0000098
 4,-0.00008394,0.00031148,0.00053208,0.00053785,-0.00110823,0.00048697,
 -0.00139362,-0.00303006,-0.08774820,-0.08878905,0.27946632,-0.00702468
 ,0.00235073,0.00292277,0.00034383,-0.00119721,-0.00149006,0.00044436,-
 0.00001560,-0.00002858,-0.32091453,-0.00300747,-0.00373489,0.00044294,
 -0.00002676,-0.00002317,0.00014744,0.00001463,-0.00004498,0.00021970,-
 0.00038434,-0.00004871,-0.00002983,0.00008000,-0.00002270,0.00021269,0
 .00005851,0.00005754,-0.00052723,0.00006343,0.00007890,0.00021274,0.00
 004371,0.00006952,-0.00003038,-0.00003960,0.00007281,0.00022050,0.0000
 3511,-0.00038390,0.00014744,-0.00004702,0.00000458,-0.00872234,-0.0022
 8754,-0.00042416,-0.00872313,0.00008045,-0.00232457,0.34358049,-0.0128
 5485,-0.00034902,0.00241257,-0.00061910,-0.00186712,-0.00277742,0.0007
 0506,0.00018088,0.00056765,-0.01231017,-0.03772147,0.00285736,0.000715
 60,0.00050780,0.00065359,0.00018443,0.00030664,-0.00007537,0.00031217,
 -0.00056012,-0.00015249,-0.00006595,0.00005715,-0.00005429,-0.00006184
 ,0.00011044,-0.00011301,-0.00116439,0.00024271,-0.00011931,0.00043740,
 0.00002990,0.00007488,0.00005797,-0.00002497,0.00008596,0.00014964,0.0
 0020127,-0.00028851,0.00000439,-0.00014291,0.00022780,0.03004927,0.001
 19989,0.00048978,-0.00981861,-0.00189304,-0.00158481,0.00427898,0.0397
 2196,-0.01600027,0.00240501,0.00070416,-0.00077049,-0.00277711,-0.0030
 9193,0.00088934,0.00058260,0.00077814,-0.01531577,0.00286157,-0.036454
 94,0.00087904,0.00064004,0.00045080,0.00004519,0.00032704,-0.00010928,
 0.00022179,-0.00045503,0.00010302,0.00004432,0.00010304,-0.00001837,0.
 00043435,0.00009254,0.00002157,-0.00144904,-0.00011933,0.00019012,0.00
 003303,-0.00013086,0.00010198,-0.00005375,-0.00007333,0.00006501,0.000
 35435,0.00002002,-0.00065364,0.00018984,-0.00017436,0.00034019,-0.0034
 2745,-0.00090282,-0.00213463,0.02860593,-0.00019466,0.00095915,0.00531
 959,-0.00220437,0.03874864\\-0.00000527,0.00000632,0.00000326,-0.00071
 915,-0.00000408,-0.00000438,0.00024402,0.00024504,-0.00063078,0.000237
 71,0.00042426,0.00052966,0.00024325,-0.00067133,0.00010340,-0.00005569
 ,0.00015340,-0.00002272,-0.00005501,0.00015283,-0.00002520,-0.00005117
 ,0.00015056,-0.00002272,0.00016246,-0.00000008,0.00000049,0.00016591,0
 .00000262,0.00000147,0.00016452,0.00000257,-0.00000074,-0.00005559,-0.
 00005695,0.00014445,-0.00005727,-0.00005487,0.00014317,-0.00005540,-0.
 00005642,0.00014421,-0.00005428,-0.00009885,-0.00012156,-0.00005424,-0
 .00009654,-0.00012011,-0.00005481,-0.00009848,-0.00012190\\\@


 IT CANNOT BE MY BEAUTY, FOR I HAVE NONE; AND IT CANNOT BE MY WIT,
 FOR HE HAS NOT ENOUGH TO KNOW THAT I HAVE ANY.
 -- CATHARINE SEDLEY, PUZZLED ABOUT WHY SHE WAS MISTRESS TO JAMES II
 Job cpu time:       0 days  0 hours 11 minutes 41.2 seconds.
 Elapsed time:       0 days  0 hours  0 minutes 44.5 seconds.
 File lengths (MBytes):  RWF=     38 Int=      0 D2E=      0 Chk=      3 Scr=      1
 Normal termination of Gaussian 16 at Sat Nov 10 19:05:50 2018.
