 Entering Gaussian System, Link 0=g16
 Initial command:
 /cluster/chemistry/gaussian/g16/l1.exe "/scratch/js1212.730716/scratch/Gau-1618.inp" -scrdir="/scratch/js1212.730716/scratch/"
 Entering Link 1 = /cluster/chemistry/gaussian/g16/l1.exe PID=      1619.
  
 Copyright (c) 1988,1990,1992,1993,1995,1998,2003,2009,2016,
            Gaussian, Inc.  All Rights Reserved.
  
 This is part of the Gaussian(R) 16 program.  It is based on
 the Gaussian(R) 09 system (copyright 2009, Gaussian, Inc.),
 the Gaussian(R) 03 system (copyright 2003, Gaussian, Inc.),
 the Gaussian(R) 98 system (copyright 1998, Gaussian, Inc.),
 the Gaussian(R) 94 system (copyright 1995, Gaussian, Inc.),
 the Gaussian 92(TM) system (copyright 1992, Gaussian, Inc.),
 the Gaussian 90(TM) system (copyright 1990, Gaussian, Inc.),
 the Gaussian 88(TM) system (copyright 1988, Gaussian, Inc.),
 the Gaussian 86(TM) system (copyright 1986, Carnegie Mellon
 University), and the Gaussian 82(TM) system (copyright 1983,
 Carnegie Mellon University). Gaussian is a federally registered
 trademark of Gaussian, Inc.
  
 This software contains proprietary and confidential information,
 including trade secrets, belonging to Gaussian, Inc.
  
 This software is provided under written license and may be
 used, copied, transmitted, or stored only in accord with that
 written license.
  
 The following legend is applicable only to US Government
 contracts under FAR:
  
                    RESTRICTED RIGHTS LEGEND
  
 Use, reproduction and disclosure by the US Government is
 subject to restrictions as set forth in subparagraphs (a)
 and (c) of the Commercial Computer Software - Restricted
 Rights clause in FAR 52.227-19.
  
 Gaussian, Inc.
 340 Quinnipiac St., Bldg. 40, Wallingford CT 06492
  
  
 ---------------------------------------------------------------
 Warning -- This program may not be used in any manner that
 competes with the business of Gaussian, Inc. or will provide
 assistance to any competitor of Gaussian, Inc.  The licensee
 of this program is prohibited from giving any competitor of
 Gaussian, Inc. access to this program.  By using this program,
 the user acknowledges that Gaussian, Inc. is engaged in the
 business of creating and licensing software in the field of
 computational chemistry and represents and warrants to the
 licensee that it is not a competitor of Gaussian, Inc. and that
 it will not use this program in any manner prohibited above.
 ---------------------------------------------------------------
  

 Cite this work as:
 Gaussian 16, Revision A.03,
 M. J. Frisch, G. W. Trucks, H. B. Schlegel, G. E. Scuseria, 
 M. A. Robb, J. R. Cheeseman, G. Scalmani, V. Barone, 
 G. A. Petersson, H. Nakatsuji, X. Li, M. Caricato, A. V. Marenich, 
 J. Bloino, B. G. Janesko, R. Gomperts, B. Mennucci, H. P. Hratchian, 
 J. V. Ortiz, A. F. Izmaylov, J. L. Sonnenberg, D. Williams-Young, 
 F. Ding, F. Lipparini, F. Egidi, J. Goings, B. Peng, A. Petrone, 
 T. Henderson, D. Ranasinghe, V. G. Zakrzewski, J. Gao, N. Rega, 
 G. Zheng, W. Liang, M. Hada, M. Ehara, K. Toyota, R. Fukuda, 
 J. Hasegawa, M. Ishida, T. Nakajima, Y. Honda, O. Kitao, H. Nakai, 
 T. Vreven, K. Throssell, J. A. Montgomery, Jr., J. E. Peralta, 
 F. Ogliaro, M. J. Bearpark, J. J. Heyd, E. N. Brothers, K. N. Kudin, 
 V. N. Staroverov, T. A. Keith, R. Kobayashi, J. Normand, 
 K. Raghavachari, A. P. Rendell, J. C. Burant, S. S. Iyengar, 
 J. Tomasi, M. Cossi, J. M. Millam, M. Klene, C. Adamo, R. Cammi, 
 J. W. Ochterski, R. L. Martin, K. Morokuma, O. Farkas, 
 J. B. Foresman, and D. J. Fox, Gaussian, Inc., Wallingford CT, 2016.
 
 ******************************************
 Gaussian 16:  ES64L-G16RevA.03 25-Dec-2016
                15-Apr-2020 
 ******************************************
 %rwf=/scratch/js1212.730716/3-Dimer-GP-SMD.rwf
 %nosave
 %nprocshared=16
 Will use up to   16 processors via shared memory.
 %mem=3000MB
 %chk=/scratch/js1212.730716/3-Dimer-GPOF-Disp.chk
 ----------------------------------------------------------------------
 # genecp pbe1pbe EmpiricalDispersion=GD3BJ scrf=(SMD,solvent=water) ge
 om=allcheck
 ----------------------------------------------------------------------
 1/29=7,38=1,172=1/1;
 2/12=2,40=1/2;
 3/5=7,11=2,14=-4,16=1,17=8,25=1,30=1,70=32201,72=1,74=-13,124=41/1,2,3;
 4//1;
 5/5=2,38=5,53=1/2;
 6/7=2,8=2,9=2,10=2,28=1/1;
 99/5=1,9=1/99;
 Structure from the checkpoint file:  "/scratch/js1212.730716/3-Dimer-GPOF-Disp.chk"
 -------------------
 Title Card Required
 -------------------
 Charge =  0 Multiplicity = 1
 Redundant internal coordinates found in file.  (old form).
 Ru,0,1.9517283334,-0.1944016102,-0.3240639949
 O,0,2.0162728206,-1.671318648,1.1292251582
 C,0,1.9002175258,0.8206773799,-1.8410422318
 P,0,2.9036513932,1.4603189851,0.8872696878
 N,0,4.0091781707,-0.6601016622,-0.6708578012
 C,0,4.5410846128,1.605467613,-0.0013049793
 H,0,4.3335170676,2.2487059195,-0.8734166657
 H,0,5.3292625431,2.093758551,0.5899323959
 C,0,4.9812721934,0.2598974506,-0.47825401
 C,0,6.3248566725,-0.0404555674,-0.6883102419
 H,0,7.0779229486,0.730033177,-0.5199638674
 C,0,6.6804889884,-1.3180790856,-1.1013070413
 H,0,7.7265573015,-1.5756154402,-1.2762768629
 C,0,5.6765963228,-2.2614045062,-1.2828719812
 H,0,5.9064278323,-3.2788416778,-1.6008071504
 C,0,4.3491946652,-1.9098979593,-1.0541792711
 C,0,3.2487415881,-2.9201739954,-1.1475669694
 H,0,3.6508498307,-3.8418231667,-1.6114847349
 H,0,2.9284490468,-3.117709229,-0.1082631796
 N,0,2.0771266146,-2.4122562301,-1.8422558357
 C,0,2.3175837424,3.2724526877,0.8579356639
 C,0,3.4361773196,4.2825806161,1.1323233896
 H,0,4.2258276273,4.2427738362,0.3676599695
 H,0,3.9011380614,4.1677594798,2.1170296029
 H,0,3.0016113622,5.2954885404,1.0895696937
 C,0,1.1844792233,3.4476674369,1.8675507341
 H,0,0.6928065138,4.4202163528,1.7010152345
 H,0,1.5451049134,3.435241998,2.9050484685
 H,0,0.4207602355,2.6665319926,1.7636078762
 C,0,1.7795817701,3.5562875981,-0.54190157
 H,0,0.9576185996,2.8816404929,-0.7981081277
 H,0,2.5509719392,3.4587890768,-1.3195148298
 H,0,1.4044500422,4.5924916454,-0.5749381266
 C,0,3.3672338294,0.9627230123,2.6650847795
 C,0,4.0877339904,2.0537067832,3.4552388821
 H,0,3.446511576,2.9169869974,3.6787313876
 H,0,4.9992291568,2.4116844382,2.9515197412
 H,0,4.4007788749,1.6242857976,4.4216477903
 C,0,4.2883273336,-0.259828232,2.574877423
 H,0,4.4996907423,-0.5990136603,3.6031483814
 H,0,5.2560968002,-0.0230070265,2.1065961874
 H,0,3.7854068474,-1.0777166914,2.0391563979
 C,0,2.0852255211,0.5413689456,3.3851902594
 H,0,2.3480582818,0.1608331736,4.3869520669
 H,0,1.6048958353,-0.267154229,2.8178479584
 H,0,1.3787202463,1.3707222055,3.517775596
 C,0,1.1852205128,-1.6998629891,-4.0636169575
 H,0,0.4434569528,-2.4970569475,-4.2188316458
 H,0,1.5238437236,-1.3610053802,-5.0536530302
 H,0,0.6841617708,-0.8589328664,-3.568317251
 C,0,0.9143807377,-3.26435749,-1.6015261658
 H,0,0.0412020493,-2.7670656999,-2.0420537592
 H,0,0.7607722935,-3.2572317119,-0.5123811324
 C,0,0.9997020923,-4.6945193789,-2.1192278964
 H,0,1.1424055424,-4.7359558885,-3.2106883829
 H,0,0.0586631942,-5.2173651499,-1.8907870884
 H,0,1.81541366,-5.2646218992,-1.6484561008
 C,0,2.3756142084,-2.1691703661,-3.2537287666
 H,0,2.8136139543,-3.0781884159,-3.7203386315
 H,0,3.1627349129,-1.398371103,-3.2847434485
 O,0,0.0032781167,-0.4392718729,0.0551976004
 Ru,0,-1.9439896097,-0.0938404188,0.3535634789
 C,0,-1.8876524704,1.282881307,1.5518171513
 O,0,-2.0158897658,-1.8992885988,-0.6631192654
 P,0,-2.8881987764,1.1905586848,-1.250000378
 N,0,-2.0797411136,-1.8358430147,2.3990712428
 N,0,-4.0037424146,-0.4428740596,0.8076837868
 C,0,-3.2539677944,-2.5026877385,1.8605965503
 H,0,-3.6602864431,-3.268655282,2.5494525308
 H,0,-2.9347703243,-2.9671725804,0.9097538775
 C,0,-4.3496420771,-1.5470803609,1.5045877978
 C,0,-5.6786747351,-1.8202679698,1.8158509291
 H,0,-5.9133709601,-2.7178800597,2.3888194364
 C,0,-6.6780815536,-0.9527247294,1.3924933082
 H,0,-7.7253323388,-1.150582208,1.6276935947
 C,0,-6.3164170283,0.1705124243,0.6597700926
 H,0,-7.0658064838,0.8735929606,0.2948139656
 C,0,-4.9714296442,0.39908823,0.3798141336
 C,0,-4.5248803954,1.5707675295,-0.4322997509
 H,0,-4.3143229594,2.4190162783,0.241162697
 H,0,-5.3107409679,1.8907379981,-1.1317590212
 C,0,-3.3544882237,0.2471304194,-2.8360339039
 C,0,-4.0698661499,1.0966181343,-3.8849945652
 H,0,-4.3850176857,0.4306880528,-4.7057065531
 H,0,-3.4246221728,1.8683925944,-4.3258795877
 H,0,-4.979629062,1.5780941197,-3.4935653089
 C,0,-2.0745541956,-0.3539841941,-3.4191814708
 H,0,-2.3391805708,-0.9819646068,-4.2869580171
 H,0,-1.5984290189,-0.9882979983,-2.6593912366
 H,0,-1.363867458,0.4084171396,-3.7630042787
 C,0,-4.2814117332,-0.9048912235,-2.4300571238
 H,0,-5.2479708997,-0.5492706863,-2.0411373476
 H,0,-3.782336592,-1.5564058155,-1.6984114657
 H,0,-4.4945492165,-1.5003560142,-3.3339667724
 C,0,-2.293709163,2.9445979046,-1.6954749513
 C,0,-3.407799568,3.8529633305,-2.2252136803
 H,0,-4.1971007973,4.0183076236,-1.4772284279
 H,0,-3.8739576977,3.4867065745,-3.1458576827
 H,0,-2.9684889649,4.8397313511,-2.448701692
 C,0,-1.7535426674,3.5821710618,-0.4182328366
 H,0,-1.3734418055,4.5891427961,-0.657116218
 H,0,-0.9346933816,2.9941021237,0.0061301866
 H,0,-2.5249677325,3.6951443102,0.3572439892
 C,0,-1.1604809211,2.8447051963,-2.715168193
 H,0,-0.6645660373,3.8248560537,-2.8085119402
 H,0,-1.5217611042,2.5629342824,-3.713508791
 H,0,-0.4000067169,2.1147020739,-2.410234551
 C,0,-2.376632132,-1.2297229064,3.6971368527
 H,0,-2.81887797,-1.9824717382,4.3853588817
 H,0,-3.1600101038,-0.4740526733,3.5241579588
 C,0,-1.1836437401,-0.5701477418,4.3566722167
 H,0,-0.4460336303,-1.3023567656,4.7167006721
 H,0,-1.520235926,0.0186439225,5.2225144418
 H,0,-0.6782862004,0.1085312804,3.6583884418
 C,0,-0.9210938971,-2.7266716781,2.3913489436
 H,0,-0.0455519882,-2.135291632,2.6871110577
 H,0,-0.7676365793,-3.0058661489,1.3385586957
 C,0,-1.0131199357,-3.9707819171,3.2656068548
 H,0,-1.1558203325,-3.7242014891,4.3296610075
 H,0,-0.0745845837,-4.539498991,3.1831282435
 H,0,-1.8315615514,-4.6405764551,2.9597376334
 O,0,-1.929869845,2.0772355485,2.4091294438
 O,0,1.9447841083,1.3624554183,-2.8765292804
 H,0,1.0483579796,-1.678488576,1.229216437
 H,0,-1.0479368595,-1.9373968594,-0.7555448371
 Recover connectivity data from disk.
                           ----------------------------
                           !    Current Parameters    !
                           ! (Angstroms and Degrees)  !
 --------------------------                            --------------------------
 ! Name  Definition              Value                                          !
 --------------------------------------------------------------------------------
 ! R1    R(1,2)                  2.073                                          !
 ! R2    R(1,3)                  1.826                                          !
 ! R3    R(1,4)                  2.2609                                         !
 ! R4    R(1,5)                  2.1378                                         !
 ! R5    R(1,61)                 2.0001                                         !
 ! R6    R(2,124)                0.9731                                         !
 ! R7    R(3,123)                1.1695                                         !
 ! R8    R(4,6)                  1.8686                                         !
 ! R9    R(4,21)                 1.9048                                         !
 ! R10   R(4,34)                 1.9035                                         !
 ! R11   R(5,9)                  1.3522                                         !
 ! R12   R(5,16)                 1.3508                                         !
 ! R13   R(6,7)                  1.1034                                         !
 ! R14   R(6,8)                  1.0996                                         !
 ! R15   R(6,9)                  1.4939                                         !
 ! R16   R(9,10)                 1.3927                                         !
 ! R17   R(10,11)                1.0905                                         !
 ! R18   R(10,12)                1.389                                          !
 ! R19   R(12,13)                1.0914                                         !
 ! R20   R(12,14)                1.3895                                         !
 ! R21   R(14,15)                1.0905                                         !
 ! R22   R(14,16)                1.3921                                         !
 ! R23   R(16,17)                1.4968                                         !
 ! R24   R(17,18)                1.1074                                         !
 ! R25   R(17,19)                1.1053                                         !
 ! R26   R(17,20)                1.4537                                         !
 ! R27   R(20,51)                1.4615                                         !
 ! R28   R(20,58)                1.463                                          !
 ! R29   R(21,22)                1.532                                          !
 ! R30   R(21,26)                1.5277                                         !
 ! R31   R(21,30)                1.5263                                         !
 ! R32   R(22,23)                1.0999                                         !
 ! R33   R(22,24)                1.095                                          !
 ! R34   R(22,25)                1.103                                          !
 ! R35   R(26,27)                1.1024                                         !
 ! R36   R(26,28)                1.0985                                         !
 ! R37   R(26,29)                1.0974                                         !
 ! R38   R(30,31)                1.0938                                         !
 ! R39   R(30,32)                1.0997                                         !
 ! R40   R(30,33)                1.1025                                         !
 ! R41   R(34,35)                1.5276                                         !
 ! R42   R(34,39)                1.5334                                         !
 ! R43   R(34,43)                1.5296                                         !
 ! R44   R(35,36)                1.0983                                         !
 ! R45   R(35,37)                1.1012                                         !
 ! R46   R(35,38)                1.1029                                         !
 ! R47   R(39,40)                1.1032                                         !
 ! R48   R(39,41)                1.1009                                         !
 ! R49   R(39,42)                1.0995                                         !
 ! R50   R(43,44)                1.1034                                         !
 ! R51   R(43,45)                1.0983                                         !
 ! R52   R(43,46)                1.0975                                         !
 ! R53   R(47,48)                1.0999                                         !
 ! R54   R(47,49)                1.0998                                         !
 ! R55   R(47,50)                1.0971                                         !
 ! R56   R(47,58)                1.5143                                         !
 ! R57   R(51,52)                1.0972                                         !
 ! R58   R(51,53)                1.0999                                         !
 ! R59   R(51,54)                1.5234                                         !
 ! R60   R(54,55)                1.1015                                         !
 ! R61   R(54,56)                1.1005                                         !
 ! R62   R(54,57)                1.1009                                         !
 ! R63   R(58,59)                1.1117                                         !
 ! R64   R(58,60)                1.1021                                         !
 ! R65   R(61,62)                2.0                                            !
 ! R66   R(62,63)                1.826                                          !
 ! R67   R(62,64)                2.0733                                         !
 ! R68   R(62,65)                2.2611                                         !
 ! R69   R(62,67)                2.1379                                         !
 ! R70   R(63,122)               1.1695                                         !
 ! R71   R(64,125)               0.9731                                         !
 ! R72   R(65,79)                1.8687                                         !
 ! R73   R(65,82)                1.9034                                         !
 ! R74   R(65,95)                1.9049                                         !
 ! R75   R(66,68)                1.4538                                         !
 ! R76   R(66,108)               1.463                                          !
 ! R77   R(66,115)               1.4615                                         !
 ! R78   R(67,71)                1.3508                                         !
 ! R79   R(67,78)                1.3522                                         !
 ! R80   R(68,69)                1.1074                                         !
 ! R81   R(68,70)                1.1053                                         !
 ! R82   R(68,71)                1.4968                                         !
 ! R83   R(71,72)                1.3921                                         !
 ! R84   R(72,73)                1.0905                                         !
 ! R85   R(72,74)                1.3895                                         !
 ! R86   R(74,75)                1.0914                                         !
 ! R87   R(74,76)                1.389                                          !
 ! R88   R(76,77)                1.0905                                         !
 ! R89   R(76,78)                1.3927                                         !
 ! R90   R(78,79)                1.4939                                         !
 ! R91   R(79,80)                1.1034                                         !
 ! R92   R(79,81)                1.0996                                         !
 ! R93   R(82,83)                1.5276                                         !
 ! R94   R(82,87)                1.5296                                         !
 ! R95   R(82,91)                1.5333                                         !
 ! R96   R(83,84)                1.1029                                         !
 ! R97   R(83,85)                1.0983                                         !
 ! R98   R(83,86)                1.1012                                         !
 ! R99   R(87,88)                1.1034                                         !
 ! R100  R(87,89)                1.0983                                         !
 ! R101  R(87,90)                1.0975                                         !
 ! R102  R(91,92)                1.1009                                         !
 ! R103  R(91,93)                1.0995                                         !
 ! R104  R(91,94)                1.1032                                         !
 ! R105  R(95,96)                1.532                                          !
 ! R106  R(95,100)               1.5263                                         !
 ! R107  R(95,104)               1.5277                                         !
 ! R108  R(96,97)                1.0999                                         !
 ! R109  R(96,98)                1.095                                          !
 ! R110  R(96,99)                1.103                                          !
 ! R111  R(100,101)              1.1025                                         !
 ! R112  R(100,102)              1.0938                                         !
 ! R113  R(100,103)              1.0996                                         !
 ! R114  R(104,105)              1.1024                                         !
 ! R115  R(104,106)              1.0985                                         !
 ! R116  R(104,107)              1.0974                                         !
 ! R117  R(108,109)              1.1117                                         !
 ! R118  R(108,110)              1.1021                                         !
 ! R119  R(108,111)              1.5143                                         !
 ! R120  R(111,112)              1.0999                                         !
 ! R121  R(111,113)              1.0998                                         !
 ! R122  R(111,114)              1.0971                                         !
 ! R123  R(115,116)              1.0972                                         !
 ! R124  R(115,117)              1.0999                                         !
 ! R125  R(115,118)              1.5234                                         !
 ! R126  R(118,119)              1.1015                                         !
 ! R127  R(118,120)              1.1005                                         !
 ! R128  R(118,121)              1.1009                                         !
 ! A1    A(2,1,4)               97.6266                                         !
 ! A2    A(2,1,5)               85.9033                                         !
 ! A3    A(2,1,61)              79.0573                                         !
 ! A4    A(3,1,4)               92.8731                                         !
 ! A5    A(3,1,5)               90.7724                                         !
 ! A6    A(3,1,61)             101.4266                                         !
 ! A7    A(4,1,5)               80.859                                          !
 ! A8    A(4,1,61)             113.4647                                         !
 ! A9    A(5,1,61)             160.3327                                         !
 ! A10   A(1,2,124)             92.6547                                         !
 ! A11   A(1,4,6)               99.8473                                         !
 ! A12   A(1,4,21)             123.9519                                         !
 ! A13   A(1,4,34)             114.3072                                         !
 ! A14   A(6,4,21)             100.859                                          !
 ! A15   A(6,4,34)             104.5381                                         !
 ! A16   A(21,4,34)            109.7564                                         !
 ! A17   A(1,5,9)              121.3694                                         !
 ! A18   A(1,5,16)             119.331                                          !
 ! A19   A(9,5,16)             119.2733                                         !
 ! A20   A(4,6,7)              104.8502                                         !
 ! A21   A(4,6,8)              114.01                                           !
 ! A22   A(4,6,9)              109.8797                                         !
 ! A23   A(7,6,8)              107.5143                                         !
 ! A24   A(7,6,9)              109.1578                                         !
 ! A25   A(8,6,9)              111.1253                                         !
 ! A26   A(5,9,6)              116.5165                                         !
 ! A27   A(5,9,10)             121.6909                                         !
 ! A28   A(6,9,10)             121.7806                                         !
 ! A29   A(9,10,11)            119.3788                                         !
 ! A30   A(9,10,12)            119.3552                                         !
 ! A31   A(11,10,12)           121.265                                          !
 ! A32   A(10,12,13)           120.6705                                         !
 ! A33   A(10,12,14)           118.5767                                         !
 ! A34   A(13,12,14)           120.7525                                         !
 ! A35   A(12,14,15)           121.2834                                         !
 ! A36   A(12,14,16)           119.7384                                         !
 ! A37   A(15,14,16)           118.9781                                         !
 ! A38   A(5,16,14)            121.3513                                         !
 ! A39   A(5,16,17)            117.2034                                         !
 ! A40   A(14,16,17)           121.3573                                         !
 ! A41   A(16,17,18)           108.7186                                         !
 ! A42   A(16,17,19)           105.962                                          !
 ! A43   A(16,17,20)           112.7388                                         !
 ! A44   A(18,17,19)           110.5107                                         !
 ! A45   A(18,17,20)           112.5347                                         !
 ! A46   A(19,17,20)           106.1545                                         !
 ! A47   A(17,20,51)           111.0252                                         !
 ! A48   A(17,20,58)           110.7725                                         !
 ! A49   A(51,20,58)           114.7144                                         !
 ! A50   A(4,21,22)            113.5707                                         !
 ! A51   A(4,21,26)            109.0953                                         !
 ! A52   A(4,21,30)            107.4276                                         !
 ! A53   A(22,21,26)           110.339                                          !
 ! A54   A(22,21,30)           107.3993                                         !
 ! A55   A(26,21,30)           108.8651                                         !
 ! A56   A(21,22,23)           112.075                                          !
 ! A57   A(21,22,24)           113.7017                                         !
 ! A58   A(21,22,25)           108.1127                                         !
 ! A59   A(23,22,24)           108.4536                                         !
 ! A60   A(23,22,25)           106.8058                                         !
 ! A61   A(24,22,25)           107.364                                          !
 ! A62   A(21,26,27)           109.3986                                         !
 ! A63   A(21,26,28)           112.2959                                         !
 ! A64   A(21,26,29)           111.8356                                         !
 ! A65   A(27,26,28)           107.4024                                         !
 ! A66   A(27,26,29)           107.6538                                         !
 ! A67   A(28,26,29)           108.0527                                         !
 ! A68   A(21,30,31)           111.4084                                         !
 ! A69   A(21,30,32)           112.6316                                         !
 ! A70   A(21,30,33)           108.7959                                         !
 ! A71   A(31,30,32)           107.8678                                         !
 ! A72   A(31,30,33)           108.4807                                         !
 ! A73   A(32,30,33)           107.5071                                         !
 ! A74   A(4,34,35)            114.2845                                         !
 ! A75   A(4,34,39)            107.4445                                         !
 ! A76   A(4,34,43)            107.9143                                         !
 ! A77   A(35,34,39)           108.4523                                         !
 ! A78   A(35,34,43)           110.397                                          !
 ! A79   A(39,34,43)           108.1519                                         !
 ! A80   A(34,35,36)           113.0302                                         !
 ! A81   A(34,35,37)           112.7022                                         !
 ! A82   A(34,35,38)           108.0012                                         !
 ! A83   A(36,35,37)           108.7111                                         !
 ! A84   A(36,35,38)           107.064                                          !
 ! A85   A(37,35,38)           107.0045                                         !
 ! A86   A(34,39,40)           107.7816                                         !
 ! A87   A(34,39,41)           112.4315                                         !
 ! A88   A(34,39,42)           110.3036                                         !
 ! A89   A(40,39,41)           107.109                                          !
 ! A90   A(40,39,42)           108.2448                                         !
 ! A91   A(41,39,42)           110.7854                                         !
 ! A92   A(34,43,44)           108.8314                                         !
 ! A93   A(34,43,45)           109.035                                          !
 ! A94   A(34,43,46)           112.8454                                         !
 ! A95   A(44,43,45)           108.6193                                         !
 ! A96   A(44,43,46)           107.7148                                         !
 ! A97   A(45,43,46)           109.7037                                         !
 ! A98   A(48,47,49)           107.6922                                         !
 ! A99   A(48,47,50)           108.1354                                         !
 ! A100  A(48,47,58)           112.3941                                         !
 ! A101  A(49,47,50)           108.1108                                         !
 ! A102  A(49,47,58)           109.5652                                         !
 ! A103  A(50,47,58)           110.8011                                         !
 ! A104  A(20,51,52)           107.6237                                         !
 ! A105  A(20,51,53)           105.6894                                         !
 ! A106  A(20,51,54)           116.5399                                         !
 ! A107  A(52,51,53)           106.4686                                         !
 ! A108  A(52,51,54)           109.4897                                         !
 ! A109  A(53,51,54)           110.5121                                         !
 ! A110  A(51,54,55)           112.2906                                         !
 ! A111  A(51,54,56)           109.1227                                         !
 ! A112  A(51,54,57)           112.4783                                         !
 ! A113  A(55,54,56)           107.3728                                         !
 ! A114  A(55,54,57)           107.9531                                         !
 ! A115  A(56,54,57)           107.3846                                         !
 ! A116  A(20,58,47)           114.0218                                         !
 ! A117  A(20,58,59)           110.4542                                         !
 ! A118  A(20,58,60)           106.8019                                         !
 ! A119  A(47,58,59)           109.7941                                         !
 ! A120  A(47,58,60)           109.2457                                         !
 ! A121  A(59,58,60)           106.1812                                         !
 ! A122  A(1,61,62)            162.8677                                         !
 ! A123  A(61,62,63)           101.4241                                         !
 ! A124  A(61,62,64)            79.0595                                         !
 ! A125  A(61,62,65)           113.5079                                         !
 ! A126  A(61,62,67)           160.3068                                         !
 ! A127  A(63,62,65)            92.8655                                         !
 ! A128  A(63,62,67)            90.7693                                         !
 ! A129  A(64,62,65)            97.6087                                         !
 ! A130  A(64,62,67)            85.9045                                         !
 ! A131  A(65,62,67)            80.8546                                         !
 ! A132  A(62,64,125)           92.647                                          !
 ! A133  A(62,65,79)            99.8453                                         !
 ! A134  A(62,65,82)           114.311                                          !
 ! A135  A(62,65,95)           123.9583                                         !
 ! A136  A(79,65,82)           104.5311                                         !
 ! A137  A(79,65,95)           100.855                                          !
 ! A138  A(82,65,95)           109.7546                                         !
 ! A139  A(68,66,108)          110.7786                                         !
 ! A140  A(68,66,115)          111.0252                                         !
 ! A141  A(108,66,115)         114.713                                          !
 ! A142  A(62,67,71)           119.325                                          !
 ! A143  A(62,67,78)           121.3737                                         !
 ! A144  A(71,67,78)           119.2751                                         !
 ! A145  A(66,68,69)           112.5339                                         !
 ! A146  A(66,68,70)           106.1491                                         !
 ! A147  A(66,68,71)           112.7369                                         !
 ! A148  A(69,68,70)           110.5123                                         !
 ! A149  A(69,68,71)           108.721                                          !
 ! A150  A(70,68,71)           105.9663                                         !
 ! A151  A(67,71,68)           117.2037                                         !
 ! A152  A(67,71,72)           121.35                                           !
 ! A153  A(68,71,72)           121.3585                                         !
 ! A154  A(71,72,73)           118.9805                                         !
 ! A155  A(71,72,74)           119.7383                                         !
 ! A156  A(73,72,74)           121.2811                                         !
 ! A157  A(72,74,75)           120.7509                                         !
 ! A158  A(72,74,76)           118.5773                                         !
 ! A159  A(75,74,76)           120.6715                                         !
 ! A160  A(74,76,77)           121.2654                                         !
 ! A161  A(74,76,78)           119.3548                                         !
 ! A162  A(77,76,78)           119.379                                          !
 ! A163  A(67,78,76)           121.6904                                         !
 ! A164  A(67,78,79)           116.5169                                         !
 ! A165  A(76,78,79)           121.7809                                         !
 ! A166  A(65,79,78)           109.8832                                         !
 ! A167  A(65,79,80)           104.8547                                         !
 ! A168  A(65,79,81)           114.0038                                         !
 ! A169  A(78,79,80)           109.1592                                         !
 ! A170  A(78,79,81)           111.1236                                         !
 ! A171  A(80,79,81)           107.5132                                         !
 ! A172  A(65,82,83)           114.2838                                         !
 ! A173  A(65,82,87)           107.9069                                         !
 ! A174  A(65,82,91)           107.4492                                         !
 ! A175  A(83,82,87)           110.4021                                         !
 ! A176  A(83,82,91)           108.4515                                         !
 ! A177  A(87,82,91)           108.1512                                         !
 ! A178  A(82,83,84)           108.0004                                         !
 ! A179  A(82,83,85)           113.033                                          !
 ! A180  A(82,83,86)           112.7012                                         !
 ! A181  A(84,83,85)           107.0641                                         !
 ! A182  A(84,83,86)           107.0036                                         !
 ! A183  A(85,83,86)           108.7107                                         !
 ! A184  A(82,87,88)           108.8337                                         !
 ! A185  A(82,87,89)           109.0246                                         !
 ! A186  A(82,87,90)           112.8481                                         !
 ! A187  A(88,87,89)           108.6225                                         !
 ! A188  A(88,87,90)           107.7151                                         !
 ! A189  A(89,87,90)           109.7056                                         !
 ! A190  A(82,91,92)           112.432                                          !
 ! A191  A(82,91,93)           110.3033                                         !
 ! A192  A(82,91,94)           107.7812                                         !
 ! A193  A(92,91,93)           110.7849                                         !
 ! A194  A(92,91,94)           107.1091                                         !
 ! A195  A(93,91,94)           108.2454                                         !
 ! A196  A(65,95,96)           113.5716                                         !
 ! A197  A(65,95,100)          107.4214                                         !
 ! A198  A(65,95,104)          109.11                                           !
 ! A199  A(96,95,100)          107.4003                                         !
 ! A200  A(96,95,104)          110.3288                                         !
 ! A201  A(100,95,104)         108.8648                                         !
 ! A202  A(95,96,97)           112.0763                                         !
 ! A203  A(95,96,98)           113.7027                                         !
 ! A204  A(95,96,99)           108.1116                                         !
 ! A205  A(97,96,98)           108.4539                                         !
 ! A206  A(97,96,99)           106.8047                                         !
 ! A207  A(98,96,99)           107.3633                                         !
 ! A208  A(95,100,101)         108.7972                                         !
 ! A209  A(95,100,102)         111.4085                                         !
 ! A210  A(95,100,103)         112.6296                                         !
 ! A211  A(101,100,102)        108.4823                                         !
 ! A212  A(101,100,103)        107.5069                                         !
 ! A213  A(102,100,103)        107.8671                                         !
 ! A214  A(95,104,105)         109.3938                                         !
 ! A215  A(95,104,106)         112.2983                                         !
 ! A216  A(95,104,107)         111.8436                                         !
 ! A217  A(105,104,106)        107.4013                                         !
 ! A218  A(105,104,107)        107.6522                                         !
 ! A219  A(106,104,107)        108.0494                                         !
 ! A220  A(66,108,109)         110.455                                          !
 ! A221  A(66,108,110)         106.8008                                         !
 ! A222  A(66,108,111)         114.016                                          !
 ! A223  A(109,108,110)        106.181                                          !
 ! A224  A(109,108,111)        109.7971                                         !
 ! A225  A(110,108,111)        109.2493                                         !
 ! A226  A(108,111,112)        112.39                                           !
 ! A227  A(108,111,113)        109.5688                                         !
 ! A228  A(108,111,114)        110.8008                                         !
 ! A229  A(112,111,113)        107.6933                                         !
 ! A230  A(112,111,114)        108.1343                                         !
 ! A231  A(113,111,114)        108.1117                                         !
 ! A232  A(66,115,116)         107.6178                                         !
 ! A233  A(66,115,117)         105.6863                                         !
 ! A234  A(66,115,118)         116.5425                                         !
 ! A235  A(116,115,117)        106.4689                                         !
 ! A236  A(116,115,118)        109.4937                                         !
 ! A237  A(117,115,118)        110.5138                                         !
 ! A238  A(115,118,119)        112.2956                                         !
 ! A239  A(115,118,120)        109.1183                                         !
 ! A240  A(115,118,121)        112.4783                                         !
 ! A241  A(119,118,120)        107.3712                                         !
 ! A242  A(119,118,121)        107.9544                                         !
 ! A243  A(120,118,121)        107.3841                                         !
 ! A244  L(2,1,3,4,-1)         190.4996                                         !
 ! A245  L(1,3,123,7,-1)       180.4575                                         !
 ! A246  L(63,62,64,61,-1)     180.4836                                         !
 ! A247  L(62,63,122,4,-1)     184.5714                                         !
 ! A248  L(2,1,3,4,-2)         174.8952                                         !
 ! A249  L(1,3,123,7,-2)       172.7663                                         !
 ! A250  L(63,62,64,61,-2)     168.1377                                         !
 ! A251  L(62,63,122,4,-2)     185.6376                                         !
 ! D1    D(4,1,2,124)          111.5076                                         !
 ! D2    D(5,1,2,124)         -168.2967                                         !
 ! D3    D(61,1,2,124)          -1.03                                           !
 ! D4    D(2,1,4,6)            110.2949                                         !
 ! D5    D(2,1,4,21)          -139.3781                                         !
 ! D6    D(2,1,4,34)            -0.6802                                         !
 ! D7    D(3,1,4,6)            -64.6003                                         !
 ! D8    D(3,1,4,21)            45.7267                                         !
 ! D9    D(3,1,4,34)          -175.5754                                         !
 ! D10   D(5,1,4,6)             25.7203                                         !
 ! D11   D(5,1,4,21)           136.0474                                         !
 ! D12   D(5,1,4,34)           -85.2547                                         !
 ! D13   D(61,1,4,6)          -168.3706                                         !
 ! D14   D(61,1,4,21)          -58.0435                                         !
 ! D15   D(61,1,4,34)           80.6544                                         !
 ! D16   D(2,1,5,9)           -117.9885                                         !
 ! D17   D(2,1,5,16)            60.1292                                         !
 ! D18   D(3,1,5,9)             73.2095                                         !
 ! D19   D(3,1,5,16)          -108.6728                                         !
 ! D20   D(4,1,5,9)            -19.5764                                         !
 ! D21   D(4,1,5,16)           158.5413                                         !
 ! D22   D(61,1,5,9)          -158.0041                                         !
 ! D23   D(61,1,5,16)           20.1136                                         !
 ! D24   D(2,1,61,62)          142.7377                                         !
 ! D25   D(3,1,61,62)          -49.1486                                         !
 ! D26   D(4,1,61,62)           49.1009                                         !
 ! D27   D(5,1,61,62)         -176.4766                                         !
 ! D28   D(1,4,6,7)             82.7706                                         !
 ! D29   D(1,4,6,8)           -159.9106                                         !
 ! D30   D(1,4,6,9)            -34.4167                                         !
 ! D31   D(21,4,6,7)           -44.8537                                         !
 ! D32   D(21,4,6,8)            72.4651                                         !
 ! D33   D(21,4,6,9)          -162.041                                          !
 ! D34   D(34,4,6,7)          -158.7647                                         !
 ! D35   D(34,4,6,8)           -41.4459                                         !
 ! D36   D(34,4,6,9)            84.048                                          !
 ! D37   D(1,4,21,22)         -150.6411                                         !
 ! D38   D(1,4,21,26)           85.8319                                         !
 ! D39   D(1,4,21,30)          -32.0276                                         !
 ! D40   D(6,4,21,22)          -40.8198                                         !
 ! D41   D(6,4,21,26)         -164.3469                                         !
 ! D42   D(6,4,21,30)           77.7937                                         !
 ! D43   D(34,4,21,22)          69.0866                                         !
 ! D44   D(34,4,21,26)         -54.4405                                         !
 ! D45   D(34,4,21,30)        -172.2999                                         !
 ! D46   D(1,4,34,35)          176.4331                                         !
 ! D47   D(1,4,34,39)           56.0512                                         !
 ! D48   D(1,4,34,43)          -60.358                                          !
 ! D49   D(6,4,34,35)           68.3139                                         !
 ! D50   D(6,4,34,39)          -52.068                                          !
 ! D51   D(6,4,34,43)         -168.4772                                         !
 ! D52   D(21,4,34,35)         -39.14                                           !
 ! D53   D(21,4,34,39)        -159.5219                                         !
 ! D54   D(21,4,34,43)          84.069                                          !
 ! D55   D(1,5,9,6)              0.537                                          !
 ! D56   D(1,5,9,10)           179.3                                            !
 ! D57   D(16,5,9,6)          -177.5817                                         !
 ! D58   D(16,5,9,10)            1.1812                                         !
 ! D59   D(1,5,16,14)         -179.5732                                         !
 ! D60   D(1,5,16,17)           -2.9381                                         !
 ! D61   D(9,5,16,14)           -1.4156                                         !
 ! D62   D(9,5,16,17)          175.2195                                         !
 ! D63   D(4,6,9,5)             24.3086                                         !
 ! D64   D(4,6,9,10)          -154.4531                                         !
 ! D65   D(7,6,9,5)            -90.1561                                         !
 ! D66   D(7,6,9,10)            91.0821                                         !
 ! D67   D(8,6,9,5)            151.4343                                         !
 ! D68   D(8,6,9,10)           -27.3275                                         !
 ! D69   D(5,9,10,11)         -179.9061                                         !
 ! D70   D(5,9,10,12)           -0.2532                                         !
 ! D71   D(6,9,10,11)           -1.2083                                         !
 ! D72   D(6,9,10,12)          178.4447                                         !
 ! D73   D(9,10,12,13)         179.7459                                         !
 ! D74   D(9,10,12,14)          -0.4403                                         !
 ! D75   D(11,10,12,13)         -0.6079                                         !
 ! D76   D(11,10,12,14)        179.2059                                         !
 ! D77   D(10,12,14,15)       -179.6622                                         !
 ! D78   D(10,12,14,16)          0.213                                          !
 ! D79   D(13,12,14,15)          0.1515                                         !
 ! D80   D(13,12,14,16)       -179.9734                                         !
 ! D81   D(12,14,16,5)           0.726                                          !
 ! D82   D(12,14,16,17)       -175.7693                                         !
 ! D83   D(15,14,16,5)        -179.396                                          !
 ! D84   D(15,14,16,17)          4.1087                                         !
 ! D85   D(5,16,17,18)         171.7514                                         !
 ! D86   D(5,16,17,19)         -69.4518                                         !
 ! D87   D(5,16,17,20)          46.2476                                         !
 ! D88   D(14,16,17,18)        -11.6136                                         !
 ! D89   D(14,16,17,19)        107.1832                                         !
 ! D90   D(14,16,17,20)       -137.1175                                         !
 ! D91   D(16,17,20,51)       -164.4801                                         !
 ! D92   D(16,17,20,58)         66.8483                                         !
 ! D93   D(18,17,20,51)         72.1099                                         !
 ! D94   D(18,17,20,58)        -56.5617                                         !
 ! D95   D(19,17,20,51)        -48.8962                                         !
 ! D96   D(19,17,20,58)       -177.5678                                         !
 ! D97   D(17,20,51,52)        173.0176                                         !
 ! D98   D(17,20,51,53)         59.5524                                         !
 ! D99   D(17,20,51,54)        -63.6177                                         !
 ! D100  D(58,20,51,52)        -60.4573                                         !
 ! D101  D(58,20,51,53)       -173.9225                                         !
 ! D102  D(58,20,51,54)         62.9073                                         !
 ! D103  D(17,20,58,47)        177.2405                                         !
 ! D104  D(17,20,58,59)         53.0511                                         !
 ! D105  D(17,20,58,60)        -61.9928                                         !
 ! D106  D(51,20,58,47)         50.5854                                         !
 ! D107  D(51,20,58,59)        -73.6039                                         !
 ! D108  D(51,20,58,60)        171.3522                                         !
 ! D109  D(4,21,22,23)          62.2946                                         !
 ! D110  D(4,21,22,24)         -61.1465                                         !
 ! D111  D(4,21,22,25)         179.7411                                         !
 ! D112  D(26,21,22,23)       -174.8599                                         !
 ! D113  D(26,21,22,24)         61.699                                          !
 ! D114  D(26,21,22,25)        -57.4133                                         !
 ! D115  D(30,21,22,23)        -56.3351                                         !
 ! D116  D(30,21,22,24)       -179.7763                                         !
 ! D117  D(30,21,22,25)         61.1114                                         !
 ! D118  D(4,21,26,27)        -167.4949                                         !
 ! D119  D(4,21,26,28)          73.3556                                         !
 ! D120  D(4,21,26,29)         -48.3209                                         !
 ! D121  D(22,21,26,27)         67.0806                                         !
 ! D122  D(22,21,26,28)        -52.069                                          !
 ! D123  D(22,21,26,29)       -173.7454                                         !
 ! D124  D(30,21,26,27)        -50.5442                                         !
 ! D125  D(30,21,26,28)       -169.6938                                         !
 ! D126  D(30,21,26,29)         68.6298                                         !
 ! D127  D(4,21,30,31)          58.7137                                         !
 ! D128  D(4,21,30,32)         -62.6527                                         !
 ! D129  D(4,21,30,33)         178.2579                                         !
 ! D130  D(22,21,30,31)       -178.7668                                         !
 ! D131  D(22,21,30,32)         59.8667                                         !
 ! D132  D(22,21,30,33)        -59.2226                                         !
 ! D133  D(26,21,30,31)        -59.2951                                         !
 ! D134  D(26,21,30,32)        179.3385                                         !
 ! D135  D(26,21,30,33)         60.2492                                         !
 ! D136  D(4,34,35,36)          67.6862                                         !
 ! D137  D(4,34,35,37)         -56.0723                                         !
 ! D138  D(4,34,35,38)        -174.0588                                         !
 ! D139  D(39,34,35,36)       -172.495                                          !
 ! D140  D(39,34,35,37)         63.7465                                         !
 ! D141  D(39,34,35,38)        -54.24                                           !
 ! D142  D(43,34,35,36)        -54.1706                                         !
 ! D143  D(43,34,35,37)       -177.9291                                         !
 ! D144  D(43,34,35,38)         64.0844                                         !
 ! D145  D(4,34,39,40)        -175.8394                                         !
 ! D146  D(4,34,39,41)          66.3446                                         !
 ! D147  D(4,34,39,42)         -57.8555                                         !
 ! D148  D(35,34,39,40)         60.1524                                         !
 ! D149  D(35,34,39,41)        -57.6635                                         !
 ! D150  D(35,34,39,42)        178.1363                                         !
 ! D151  D(43,34,39,40)        -59.5866                                         !
 ! D152  D(43,34,39,41)       -177.4025                                         !
 ! D153  D(43,34,39,42)         58.3973                                         !
 ! D154  D(4,34,43,44)         174.7977                                         !
 ! D155  D(4,34,43,45)          56.4703                                         !
 ! D156  D(4,34,43,46)         -65.6953                                         !
 ! D157  D(35,34,43,44)        -59.6575                                         !
 ! D158  D(35,34,43,45)       -177.9849                                         !
 ! D159  D(35,34,43,46)         59.8495                                         !
 ! D160  D(39,34,43,44)         58.8505                                         !
 ! D161  D(39,34,43,45)        -59.4769                                         !
 ! D162  D(39,34,43,46)        178.3575                                         !
 ! D163  D(48,47,58,20)        -70.8555                                         !
 ! D164  D(48,47,58,59)         53.6875                                         !
 ! D165  D(48,47,58,60)        169.7507                                         !
 ! D166  D(49,47,58,20)        169.4566                                         !
 ! D167  D(49,47,58,59)        -66.0004                                         !
 ! D168  D(49,47,58,60)         50.0628                                         !
 ! D169  D(50,47,58,20)         50.2527                                         !
 ! D170  D(50,47,58,59)        174.7957                                         !
 ! D171  D(50,47,58,60)        -69.1411                                         !
 ! D172  D(20,51,54,55)        -60.0048                                         !
 ! D173  D(20,51,54,56)       -178.9312                                         !
 ! D174  D(20,51,54,57)         62.0104                                         !
 ! D175  D(52,51,54,55)         62.3907                                         !
 ! D176  D(52,51,54,56)        -56.5357                                         !
 ! D177  D(52,51,54,57)       -175.594                                          !
 ! D178  D(53,51,54,55)        179.3583                                         !
 ! D179  D(53,51,54,56)         60.432                                          !
 ! D180  D(53,51,54,57)        -58.6264                                         !
 ! D181  D(1,61,62,63)         -49.5816                                         !
 ! D182  D(1,61,62,64)         142.2807                                         !
 ! D183  D(1,61,62,65)          48.6698                                         !
 ! D184  D(1,61,62,67)        -176.8268                                         !
 ! D185  D(61,62,64,125)        -1.0061                                         !
 ! D186  D(65,62,64,125)       111.5784                                         !
 ! D187  D(67,62,64,125)      -168.2285                                         !
 ! D188  D(61,62,65,79)       -168.3718                                         !
 ! D189  D(61,62,65,82)         80.661                                          !
 ! D190  D(61,62,65,95)        -58.0485                                         !
 ! D191  D(63,62,65,79)        -64.6009                                         !
 ! D192  D(63,62,65,82)       -175.5681                                         !
 ! D193  D(63,62,65,95)         45.7224                                         !
 ! D194  D(64,62,65,79)        110.2957                                         !
 ! D195  D(64,62,65,82)         -0.6715                                         !
 ! D196  D(64,62,65,95)       -139.381                                          !
 ! D197  D(67,62,65,79)         25.7175                                         !
 ! D198  D(67,62,65,82)        -85.2497                                         !
 ! D199  D(67,62,65,95)        136.0408                                         !
 ! D200  D(61,62,67,71)         20.0359                                         !
 ! D201  D(61,62,67,78)       -158.0911                                         !
 ! D202  D(63,62,67,71)       -108.6713                                         !
 ! D203  D(63,62,67,78)         73.2017                                         !
 ! D204  D(64,62,67,71)         60.1558                                         !
 ! D205  D(64,62,67,78)       -117.9712                                         !
 ! D206  D(65,62,67,71)        158.55                                           !
 ! D207  D(65,62,67,78)        -19.577                                          !
 ! D208  D(62,65,79,78)        -34.4136                                         !
 ! D209  D(62,65,79,80)         82.7796                                         !
 ! D210  D(62,65,79,81)       -159.9033                                         !
 ! D211  D(82,65,79,78)         84.0522                                         !
 ! D212  D(82,65,79,80)       -158.7547                                         !
 ! D213  D(82,65,79,81)        -41.4376                                         !
 ! D214  D(95,65,79,78)       -162.0426                                         !
 ! D215  D(95,65,79,80)        -44.8494                                         !
 ! D216  D(95,65,79,81)         72.4677                                         !
 ! D217  D(62,65,82,83)        176.4313                                         !
 ! D218  D(62,65,82,87)        -60.3593                                         !
 ! D219  D(62,65,82,91)         56.0475                                         !
 ! D220  D(79,65,82,83)         68.3167                                         !
 ! D221  D(79,65,82,87)       -168.474                                          !
 ! D222  D(79,65,82,91)        -52.0671                                         !
 ! D223  D(95,65,82,83)        -39.1288                                         !
 ! D224  D(95,65,82,87)         84.0806                                         !
 ! D225  D(95,65,82,91)       -159.5126                                         !
 ! D226  D(62,65,95,96)       -150.6023                                         !
 ! D227  D(62,65,95,100)       -31.9912                                         !
 ! D228  D(62,65,95,104)        85.8723                                         !
 ! D229  D(79,65,95,96)        -40.7837                                         !
 ! D230  D(79,65,95,100)        77.8274                                         !
 ! D231  D(79,65,95,104)      -164.3092                                         !
 ! D232  D(82,65,95,96)         69.1124                                         !
 ! D233  D(82,65,95,100)      -172.2765                                         !
 ! D234  D(82,65,95,104)       -54.413                                          !
 ! D235  D(108,66,68,69)       -56.5699                                         !
 ! D236  D(108,66,68,70)      -177.5739                                         !
 ! D237  D(108,66,68,71)        66.8412                                         !
 ! D238  D(115,66,68,69)        72.1046                                         !
 ! D239  D(115,66,68,70)       -48.8995                                         !
 ! D240  D(115,66,68,71)      -164.4843                                         !
 ! D241  D(68,66,108,109)       53.0498                                         !
 ! D242  D(68,66,108,110)      -61.9938                                         !
 ! D243  D(68,66,108,111)      177.2393                                         !
 ! D244  D(115,66,108,109)     -73.6093                                         !
 ! D245  D(115,66,108,110)     171.3471                                         !
 ! D246  D(115,66,108,111)      50.5802                                         !
 ! D247  D(68,66,115,116)      173.0233                                         !
 ! D248  D(68,66,115,117)       59.5618                                         !
 ! D249  D(68,66,115,118)      -63.6097                                         !
 ! D250  D(108,66,115,116)     -60.4444                                         !
 ! D251  D(108,66,115,117)    -173.9059                                         !
 ! D252  D(108,66,115,118)      62.9225                                         !
 ! D253  D(62,67,71,68)         -2.9414                                         !
 ! D254  D(62,67,71,72)       -179.5782                                         !
 ! D255  D(78,67,71,68)        175.2253                                         !
 ! D256  D(78,67,71,72)         -1.4115                                         !
 ! D257  D(62,67,78,76)        179.31                                           !
 ! D258  D(62,67,78,79)          0.5408                                         !
 ! D259  D(71,67,78,76)          1.1821                                         !
 ! D260  D(71,67,78,79)       -177.5871                                         !
 ! D261  D(66,68,71,67)         46.2339                                         !
 ! D262  D(66,68,71,72)       -137.1297                                         !
 ! D263  D(69,68,71,67)        171.7372                                         !
 ! D264  D(69,68,71,72)        -11.6264                                         !
 ! D265  D(70,68,71,67)        -69.4606                                         !
 ! D266  D(70,68,71,72)        107.1759                                         !
 ! D267  D(67,71,72,73)       -179.402                                          !
 ! D268  D(67,71,72,74)          0.7211                                         !
 ! D269  D(68,71,72,73)          4.1011                                         !
 ! D270  D(68,71,72,74)       -175.7758                                         !
 ! D271  D(71,72,74,75)       -179.969                                          !
 ! D272  D(71,72,74,76)          0.2135                                         !
 ! D273  D(73,72,74,75)          0.157                                          !
 ! D274  D(73,72,74,76)       -179.6605                                         !
 ! D275  D(72,74,76,77)        179.2132                                         !
 ! D276  D(72,74,76,78)         -0.436                                          !
 ! D277  D(75,74,76,77)         -0.6045                                         !
 ! D278  D(75,74,76,78)        179.7463                                         !
 ! D279  D(74,76,78,67)         -0.2583                                         !
 ! D280  D(74,76,78,79)        178.4461                                         !
 ! D281  D(77,76,78,67)       -179.9142                                         !
 ! D282  D(77,76,78,79)         -1.2098                                         !
 ! D283  D(67,78,79,65)         24.3058                                         !
 ! D284  D(67,78,79,80)        -90.167                                          !
 ! D285  D(67,78,79,81)        151.4248                                         !
 ! D286  D(76,78,79,65)       -154.4621                                         !
 ! D287  D(76,78,79,80)         91.065                                          !
 ! D288  D(76,78,79,81)        -27.3432                                         !
 ! D289  D(65,82,83,84)       -174.0674                                         !
 ! D290  D(65,82,83,85)         67.6765                                         !
 ! D291  D(65,82,83,86)        -56.083                                          !
 ! D292  D(87,82,83,84)         64.0823                                         !
 ! D293  D(87,82,83,85)        -54.1739                                         !
 ! D294  D(87,82,83,86)       -177.9333                                         !
 ! D295  D(91,82,83,84)        -54.2437                                         !
 ! D296  D(91,82,83,85)       -172.4999                                         !
 ! D297  D(91,82,83,86)         63.7407                                         !
 ! D298  D(65,82,87,88)        174.8205                                         !
 ! D299  D(65,82,87,89)         56.4938                                         !
 ! D300  D(65,82,87,90)        -65.6688                                         !
 ! D301  D(83,82,87,88)        -59.6375                                         !
 ! D302  D(83,82,87,89)       -177.9642                                         !
 ! D303  D(83,82,87,90)         59.8733                                         !
 ! D304  D(91,82,87,88)         58.8721                                         !
 ! D305  D(91,82,87,89)        -59.4546                                         !
 ! D306  D(91,82,87,90)        178.3828                                         !
 ! D307  D(65,82,91,92)         66.3438                                         !
 ! D308  D(65,82,91,93)        -57.8559                                         !
 ! D309  D(65,82,91,94)       -175.8402                                         !
 ! D310  D(83,82,91,92)        -57.6659                                         !
 ! D311  D(83,82,91,93)        178.1344                                         !
 ! D312  D(83,82,91,94)         60.1502                                         !
 ! D313  D(87,82,91,92)       -177.4101                                         !
 ! D314  D(87,82,91,93)         58.3902                                         !
 ! D315  D(87,82,91,94)        -59.594                                          !
 ! D316  D(65,95,96,97)         62.2965                                         !
 ! D317  D(65,95,96,98)        -61.147                                          !
 ! D318  D(65,95,96,99)        179.7417                                         !
 ! D319  D(100,95,96,97)       -56.3268                                         !
 ! D320  D(100,95,96,98)      -179.7703                                         !
 ! D321  D(100,95,96,99)        61.1185                                         !
 ! D322  D(104,95,96,97)      -174.8459                                         !
 ! D323  D(104,95,96,98)        61.7106                                         !
 ! D324  D(104,95,96,99)       -57.4007                                         !
 ! D325  D(65,95,100,101)      178.2505                                         !
 ! D326  D(65,95,100,102)       58.7034                                         !
 ! D327  D(65,95,100,103)      -62.6608                                         !
 ! D328  D(96,95,100,101)      -59.2319                                         !
 ! D329  D(96,95,100,102)     -178.779                                          !
 ! D330  D(96,95,100,103)       59.8568                                         !
 ! D331  D(104,95,100,101)      60.228                                          !
 ! D332  D(104,95,100,102)     -59.3191                                         !
 ! D333  D(104,95,100,103)     179.3167                                         !
 ! D334  D(65,95,104,105)     -167.5057                                         !
 ! D335  D(65,95,104,106)       73.3478                                         !
 ! D336  D(65,95,104,107)      -48.3319                                         !
 ! D337  D(96,95,104,105)       67.0653                                         !
 ! D338  D(96,95,104,106)      -52.0812                                         !
 ! D339  D(96,95,104,107)     -173.7608                                         !
 ! D340  D(100,95,104,105)     -50.5544                                         !
 ! D341  D(100,95,104,106)    -169.701                                          !
 ! D342  D(100,95,104,107)      68.6194                                         !
 ! D343  D(66,108,111,112)     -70.8908                                         !
 ! D344  D(66,108,111,113)     169.4201                                         !
 ! D345  D(66,108,111,114)      50.213                                          !
 ! D346  D(109,108,111,112)     53.6513                                         !
 ! D347  D(109,108,111,113)    -66.0378                                         !
 ! D348  D(109,108,111,114)    174.7551                                         !
 ! D349  D(110,108,111,112)    169.718                                          !
 ! D350  D(110,108,111,113)     50.0289                                         !
 ! D351  D(110,108,111,114)    -69.1782                                         !
 ! D352  D(66,115,118,119)     -60.0067                                         !
 ! D353  D(66,115,118,120)    -178.9313                                         !
 ! D354  D(66,115,118,121)      62.0138                                         !
 ! D355  D(116,115,118,119)     62.386                                          !
 ! D356  D(116,115,118,120)    -56.5386                                         !
 ! D357  D(116,115,118,121)   -175.5934                                         !
 ! D358  D(117,115,118,119)    179.3574                                         !
 ! D359  D(117,115,118,120)     60.4328                                         !
 ! D360  D(117,115,118,121)    -58.6221                                         !
 --------------------------------------------------------------------------------
 Stoichiometry    C40H72N4O5P2Ru2
 Framework group  C1[X(C40H72N4O5P2Ru2)]
 Deg. of freedom   369
 Full point group                 C1      NOp   1
 Largest Abelian subgroup         C1      NOp   1
 Largest concise Abelian subgroup C1      NOp   1
                         Standard orientation:                         
 ---------------------------------------------------------------------
 Center     Atomic      Atomic             Coordinates (Angstroms)
 Number     Number       Type             X           Y           Z
 ---------------------------------------------------------------------
      1         44           0        1.950960   -0.146534   -0.324074
      2          8           0        2.008316   -1.800293    0.924641
      3          6           0        1.908933    1.057682   -1.696066
      4         15           0        2.885992    1.338425    1.101477
      5          7           0        4.013109   -0.557675   -0.709750
      6          6           0        4.530596    1.602519    0.254510
      7          1           0        4.328264    2.353522   -0.528098
      8          1           0        5.311716    2.011520    0.911612
      9          6           0        4.980008    0.331835   -0.389847
     10          6           0        6.326504    0.064937   -0.624944
     11          1           0        7.075160    0.808815   -0.350607
     12          6           0        6.690548   -1.146945   -1.197810
     13          1           0        7.739072   -1.376740   -1.395268
     14          6           0        5.691843   -2.061105   -1.510104
     15          1           0        5.928280   -3.027757   -1.955936
     16          6           0        4.361174   -1.745881   -1.249709
     17          6           0        3.265391   -2.738175   -1.484205
     18          1           0        3.675017   -3.590363   -2.060686
     19          1           0        2.936744   -3.070470   -0.482541
     20          7           0        2.098010   -2.146982   -2.117422
     21          6           0        2.293389    3.137370    1.303429
     22          6           0        3.405725    4.105945    1.717518
     23          1           0        4.202194    4.168304    0.961482
     24          1           0        3.862463    3.864813    2.683057
     25          1           0        2.967743    5.114644    1.803287
     26          6           0        1.150825    3.176408    2.316825
     27          1           0        0.656975    4.161098    2.274086
     28          1           0        1.502384    3.029637    3.347102
     29          1           0        0.390991    2.413543    2.104851
     30          6           0        1.766618    3.600052   -0.052295
     31          1           0        0.949477    2.962483   -0.401867
     32          1           0        2.545158    3.606855   -0.828865
     33          1           0        1.387894    4.630733    0.046693
     34          6           0        3.335837    0.614294    2.803362
     35          6           0        4.045271    1.594701    3.735679
     36          1           0        3.398870    2.419774    4.063989
     37          1           0        4.959795    2.017705    3.291361
     38          1           0        4.351444    1.043655    4.640639
     39          6           0        4.262280   -0.583645    2.562891
     40          1           0        4.465894   -1.053564    3.540020
     41          1           0        5.233220   -0.285240    2.138417
     42          1           0        3.767157   -1.325931    1.920448
     43          6           0        2.049159    0.099261    3.450537
     44          1           0        2.304628   -0.408062    4.396462
     45          1           0        1.576868   -0.629555    2.778174
     46          1           0        1.338402    0.902391    3.683694
     47          6           0        1.222941   -1.153120   -4.234954
     48          1           0        0.485572   -1.925159   -4.499652
     49          1           0        1.568954   -0.687094   -5.169168
     50          1           0        0.714398   -0.385312   -3.638800
     51          6           0        0.936412   -3.026215   -2.000607
     52          1           0        0.065265   -2.477950   -2.380492
     53          1           0        0.773234   -3.161672   -0.921298
     54          6           0        1.031650   -4.376367   -2.699662
     55          1           0        1.184073   -4.274653   -3.785843
     56          1           0        0.090619   -4.926984   -2.550038
     57          1           0        1.845342   -5.000914   -2.299819
     58          6           0        2.407945   -1.721018   -3.482317
     59          1           0        2.853437   -2.560238   -4.059489
     60          1           0        3.192401   -0.950729   -3.405275
     61          8           0        0.000194   -0.443840    0.002088
     62         44           0       -1.950901   -0.145335    0.325073
     63          6           0       -1.910253    1.063394    1.693163
     64          8           0       -2.007090   -1.802856   -0.919082
     65         15           0       -2.885839    1.334887   -1.105822
     66          7           0       -2.098027   -2.139709    2.124497
     67          7           0       -4.013228   -0.555969    0.710839
     68          6           0       -3.264969   -2.733620    1.492865
     69          1           0       -3.674427   -3.583977    2.072142
     70          1           0       -2.935701   -3.069229    0.492523
     71          6           0       -4.361068   -1.742565    1.254522
     72          6           0       -5.691741   -2.057471    1.515265
     73          1           0       -5.928073   -3.022779    1.964051
     74          6           0       -6.690655   -1.144689    1.199547
     75          1           0       -7.739176   -1.374254    1.397296
     76          6           0       -6.326809    0.065490    0.622980
     77          1           0       -7.075610    0.808242    0.346002
     78          6           0       -4.980288    0.332121    0.387602
     79          6           0       -4.531047    1.600907   -0.260574
     80          1           0       -4.329596    2.354564    0.519703
     81          1           0       -5.311943    2.007382   -0.919498
     82          6           0       -3.334651    0.605287   -2.805598
     83          6           0       -4.043995    1.582539   -3.741292
     84          1           0       -4.349431    1.028586   -4.644728
     85          1           0       -3.397819    2.406912   -4.071776
     86          1           0       -4.958961    2.006465   -3.298766
     87          6           0       -2.047400    0.088721   -3.450405
     88          1           0       -2.302043   -0.421334   -4.395086
     89          1           0       -1.575572   -0.638082   -2.775522
     90          1           0       -1.336600    0.891305   -3.685282
     91          6           0       -4.260757   -0.592254   -2.561918
     92          1           0       -5.232021   -0.292926   -2.138820
     93          1           0       -3.765669   -1.332378   -1.916971
     94          1           0       -4.463719   -1.065224   -3.537707
     95          6           0       -2.294071    3.133591   -1.313173
     96          6           0       -3.406884    4.100431   -1.730086
     97          1           0       -4.203330    4.164714   -0.974203
     98          1           0       -3.863570    3.856238   -2.694886
     99          1           0       -2.969347    5.109058   -1.818883
    100          6           0       -1.767527    3.600438    0.041239
    101          1           0       -1.389138    4.630952   -0.060729
    102          1           0       -0.950223    2.964142    0.392756
    103          1           0       -2.546142    3.609256    0.817709
    104          6           0       -1.151578    3.170545   -2.326733
    105          1           0       -0.658555    4.155775   -2.286846
    106          1           0       -1.503027    3.020526   -3.356577
    107          1           0       -0.391065    2.408962   -2.112672
    108          6           0       -2.408567   -1.708928    3.487763
    109          1           0       -2.853994   -2.546189    4.067806
    110          1           0       -3.193236   -0.939176    3.407662
    111          6           0       -1.223897   -1.137973    4.238640
    112          1           0       -0.486722   -1.908992    4.506824
[...]
 Alpha virt. eigenvalues --    4.59719   4.59861   4.60117   4.60492   4.60647
 Alpha virt. eigenvalues --    4.61003   4.61903   4.62190   4.62396   4.62481
 Alpha virt. eigenvalues --    4.62856   4.63212   4.63766   4.64207   4.64662
 Alpha virt. eigenvalues --    4.66265   4.66784   4.67503   4.67644   4.68005
 Alpha virt. eigenvalues --    4.68527   4.68930   4.69741   4.70326   4.70519
 Alpha virt. eigenvalues --    4.70779   4.71374   4.71779   4.72245   4.73242
 Alpha virt. eigenvalues --    4.73621   4.73808   4.73924   4.74180   4.74400
 Alpha virt. eigenvalues --    4.74913   4.74994   4.75454   4.75499   4.75697
 Alpha virt. eigenvalues --    4.76473   4.76790   4.76870   4.78645   4.78678
 Alpha virt. eigenvalues --    4.79368   4.79609   4.79823   4.80338   4.80614
 Alpha virt. eigenvalues --    4.80942   4.81129   4.81545   4.82345   4.82632
 Alpha virt. eigenvalues --    4.82709   4.82973   4.83222   4.83387   4.83842
 Alpha virt. eigenvalues --    4.84064   4.84095   4.84453   4.84824   4.84855
 Alpha virt. eigenvalues --    4.85557   4.85683   4.85959   4.86095   4.86333
 Alpha virt. eigenvalues --    4.86618   4.86677   4.86822   4.87304   4.87570
 Alpha virt. eigenvalues --    4.88259   4.88593   4.88634   4.88686   4.88932
 Alpha virt. eigenvalues --    4.89279   4.89383   4.89503   4.89733   4.89936
 Alpha virt. eigenvalues --    4.90054   4.90180   4.90644   4.90919   4.91079
 Alpha virt. eigenvalues --    4.91203   4.91295   4.91496   4.91591   4.91984
 Alpha virt. eigenvalues --    4.92217   4.92360   4.92808   4.93126   4.93381
 Alpha virt. eigenvalues --    4.93642   4.93925   4.94449   4.94705   4.94961
 Alpha virt. eigenvalues --    4.95154   4.95568   4.95790   4.96327   4.96471
 Alpha virt. eigenvalues --    4.97077   4.97141   4.97349   4.97492   4.97986
 Alpha virt. eigenvalues --    4.98003   4.98495   4.98515   4.99376   4.99555
 Alpha virt. eigenvalues --    4.99916   4.99955   5.00807   5.01201   5.01459
 Alpha virt. eigenvalues --    5.01663   5.01916   5.02695   5.03133   5.03636
 Alpha virt. eigenvalues --    5.03770   5.03999   5.05358   5.05696   5.06113
 Alpha virt. eigenvalues --    5.06253   5.06512   5.07536   5.08290   5.09162
 Alpha virt. eigenvalues --    5.09228   5.09470   5.09546   5.10120   5.10241
 Alpha virt. eigenvalues --    5.10666   5.11117   5.11158   5.11546   5.11585
 Alpha virt. eigenvalues --    5.13084   5.13252   5.13430   5.13611   5.13969
 Alpha virt. eigenvalues --    5.14149   5.14333   5.14391   5.14812   5.14835
 Alpha virt. eigenvalues --    5.15184   5.15708   5.15912   5.16262   5.16818
 Alpha virt. eigenvalues --    5.16879   5.18247   5.18475   5.18996   5.19403
 Alpha virt. eigenvalues --    5.19409   5.19848   5.19908   5.20819   5.20857
 Alpha virt. eigenvalues --    5.21361   5.21853   5.22166   5.22624   5.22808
 Alpha virt. eigenvalues --    5.22966   5.23004   5.23261   5.23357   5.23567
 Alpha virt. eigenvalues --    5.24042   5.24733   5.24984   5.25471   5.25643
 Alpha virt. eigenvalues --    5.26041   5.26265   5.26298   5.27001   5.27216
 Alpha virt. eigenvalues --    5.27528   5.27651   5.28153   5.28166   5.28243
 Alpha virt. eigenvalues --    5.28623   5.28810   5.28967   5.29390   5.29526
 Alpha virt. eigenvalues --    5.29789   5.30010   5.30017   5.30659   5.30934
 Alpha virt. eigenvalues --    5.31257   5.31605   5.31667   5.31904   5.32201
 Alpha virt. eigenvalues --    5.32748   5.32962   5.33143   5.33525   5.33587
 Alpha virt. eigenvalues --    5.33853   5.34461   5.34614   5.35116   5.35626
 Alpha virt. eigenvalues --    5.35763   5.36053   5.36281   5.36377   5.36619
 Alpha virt. eigenvalues --    5.36735   5.36948   5.37428   5.37442   5.37736
 Alpha virt. eigenvalues --    5.37858   5.38134   5.38455   5.38580   5.39100
 Alpha virt. eigenvalues --    5.39695   5.39710   5.39993   5.40046   5.40497
 Alpha virt. eigenvalues --    5.40761   5.41044   5.41060   5.41409   5.41636
 Alpha virt. eigenvalues --    5.42136   5.42481   5.42503   5.42964   5.43121
 Alpha virt. eigenvalues --    5.43258   5.43505   5.44087   5.44193   5.44403
 Alpha virt. eigenvalues --    5.44779   5.45201   5.45324   5.45539   5.45555
 Alpha virt. eigenvalues --    5.45833   5.46773   5.47159   5.47478   5.47602
 Alpha virt. eigenvalues --    5.47844   5.48131   5.48582   5.49095   5.49403
 Alpha virt. eigenvalues --    5.50126   5.50229   5.50786   5.50794   5.51196
 Alpha virt. eigenvalues --    5.51380   5.51472   5.51714   5.52082   5.52249
 Alpha virt. eigenvalues --    5.52571   5.52879   5.52935   5.52963   5.53184
 Alpha virt. eigenvalues --    5.53900   5.54495   5.54813   5.54864   5.55557
 Alpha virt. eigenvalues --    5.56234   5.56884   5.56895   5.57237   5.57362
 Alpha virt. eigenvalues --    5.57682   5.57741   5.58090   5.58137   5.58605
 Alpha virt. eigenvalues --    5.58990   5.59499   5.60022   5.60258   5.60655
 Alpha virt. eigenvalues --    5.61374   5.61754   5.61880   5.62174   5.62493
 Alpha virt. eigenvalues --    5.62982   5.63124   5.64492   5.64770   5.65157
 Alpha virt. eigenvalues --    5.65171   5.67315   5.67364   5.68079   5.68147
 Alpha virt. eigenvalues --    5.69048   5.69413   5.70940   5.71024   5.73451
 Alpha virt. eigenvalues --    5.75089   5.77534   5.78791   5.80557   5.81383
 Alpha virt. eigenvalues --    5.82967   5.85287   5.87757   5.88841   5.90009
 Alpha virt. eigenvalues --    5.91101   5.94943   5.95424   5.95917   5.96655
 Alpha virt. eigenvalues --    5.98986   5.99253   6.01414   6.01934   6.02256
 Alpha virt. eigenvalues --    6.02741   6.02821   6.03259   6.04171   6.04389
 Alpha virt. eigenvalues --    6.05400   6.05556   6.05896   6.06169   6.06329
 Alpha virt. eigenvalues --    6.06704   6.06862   6.07438   6.07584   6.07925
 Alpha virt. eigenvalues --    6.08180   6.09043   6.09806   6.10038   6.11262
 Alpha virt. eigenvalues --    6.12005   6.12837   6.13494   6.13807   6.13916
 Alpha virt. eigenvalues --    6.14324   6.14791   6.14857   6.15820   6.16174
 Alpha virt. eigenvalues --    6.16958   6.17086   6.17384   6.18815   6.19179
 Alpha virt. eigenvalues --    6.19519   6.19693   6.20544   6.21331   6.21741
 Alpha virt. eigenvalues --    6.25116   6.25226   6.25331   6.26187   6.26355
 Alpha virt. eigenvalues --    6.27213   6.28632   6.29901   6.30349   6.30942
 Alpha virt. eigenvalues --    6.31311   6.35447   6.35947   6.38717   6.39317
 Alpha virt. eigenvalues --    6.42413   6.42485   6.43807   6.45149   6.50255
 Alpha virt. eigenvalues --    6.55885   6.55947   6.58065   6.59709   6.63767
 Alpha virt. eigenvalues --    6.64218   6.65984   6.69217   6.73385   6.78221
 Alpha virt. eigenvalues --    6.78319   6.81450   6.81593   6.82706   6.85702
 Alpha virt. eigenvalues --    6.87508   6.90878   6.91009   6.92568   6.93089
 Alpha virt. eigenvalues --    6.97376   6.97603   7.10104   7.10769   7.14731
 Alpha virt. eigenvalues --    7.19291   7.28514   7.30081   7.50359   7.51494
 Alpha virt. eigenvalues --    8.60801   8.69809   9.88867   9.89081  10.05465
 Alpha virt. eigenvalues --   10.16830  10.23475  10.29656  10.88949  10.92866
 Alpha virt. eigenvalues --   11.20420  12.34382  12.35467  12.38263  12.39979
 Alpha virt. eigenvalues --   12.52748  12.64037  12.94354  12.96538  13.01860
 Alpha virt. eigenvalues --   13.02872  13.28736  13.28891  13.37020  13.40895
 Alpha virt. eigenvalues --   13.41815  13.43151  13.59762  13.61108  13.65947
 Alpha virt. eigenvalues --   13.67708  13.67795  13.71185  13.80366  13.82826
 Alpha virt. eigenvalues --   13.86459  13.87848  13.90975  13.91741  13.99302
 Alpha virt. eigenvalues --   14.04875  14.09606  14.12184  14.12790  14.27762
 Alpha virt. eigenvalues --   14.30789  14.32140  15.10045  15.11142  35.43628
 Alpha virt. eigenvalues --   35.50579  35.61400  35.63581  35.79936  35.88918
 Alpha virt. eigenvalues --   46.28030  46.39504
          Condensed to atoms (all electrons):
 Mulliken charges:
               1
     1  Ru   1.006180
     2  O   -0.754772
     3  C   -0.167191
     4  P    0.019320
     5  N   -0.162800
     6  C   -0.210092
     7  H    0.164473
     8  H    0.150305
     9  C    0.037656
    10  C   -0.134108
    11  H    0.162490
    12  C   -0.138872
    13  H    0.162493
    14  C   -0.149034
    15  H    0.157538
    16  C    0.079746
    17  C   -0.124396
    18  H    0.115453
    19  H    0.167540
    20  N   -0.161534
    21  C    0.029435
    22  C   -0.342598
    23  H    0.117305
    24  H    0.125991
    25  H    0.110877
    26  C   -0.376853
    27  H    0.113666
    28  H    0.129594
    29  H    0.138632
    30  C   -0.339490
    31  H    0.080081
    32  H    0.130548
    33  H    0.117880
    34  C    0.021456
    35  C   -0.337561
    36  H    0.118792
    37  H    0.116455
    38  H    0.108899
    39  C   -0.387450
    40  H    0.108291
    41  H    0.116861
    42  H    0.153396
    43  C   -0.349117
    44  H    0.107473
    45  H    0.123679
    46  H    0.122411
    47  C   -0.342479
    48  H    0.113760
    49  H    0.119176
    50  H    0.116922
    51  C   -0.126364
    52  H    0.106977
    53  H    0.118743
    54  C   -0.339261
    55  H    0.110504
    56  H    0.118851
    57  H    0.112287
    58  C   -0.112019
    59  H    0.101676
    60  H    0.130249
    61  O   -0.972093
    62  Ru   1.006292
    63  C   -0.167278
    64  O   -0.754713
    65  P    0.019262
    66  N   -0.161630
    67  N   -0.162779
    68  C   -0.124273
    69  H    0.115494
    70  H    0.167529
    71  C    0.079737
    72  C   -0.149045
    73  H    0.157549
    74  C   -0.138864
    75  H    0.162496
    76  C   -0.134115
    77  H    0.162492
    78  C    0.037643
    79  C   -0.210080
    80  H    0.164482
    81  H    0.150309
    82  C    0.021546
    83  C   -0.337593
    84  H    0.108895
    85  H    0.118797
    86  H    0.116450
    87  C   -0.349149
    88  H    0.107462
    89  H    0.123741
    90  H    0.122375
    91  C   -0.387507
    92  H    0.116852
    93  H    0.153409
    94  H    0.108293
    95  C    0.029394
    96  C   -0.342598
    97  H    0.117308
    98  H    0.125987
    99  H    0.110883
   100  C   -0.339451
   101  H    0.117861
   102  H    0.080083
   103  H    0.130534
   104  C   -0.376904
   105  H    0.113636
   106  H    0.129580
   107  H    0.138717
   108  C   -0.112007
   109  H    0.101715
   110  H    0.130286
   111  C   -0.342520
   112  H    0.113784
   113  H    0.119207
   114  H    0.116902
   115  C   -0.126344
   116  H    0.107016
   117  H    0.118759
   118  C   -0.339240
   119  H    0.110512
   120  H    0.118863
   121  H    0.112294
   122  O   -0.304055
   123  O   -0.304071
   124  H    0.281953
   125  H    0.281864
 Sum of Mulliken charges =  -0.00000
 Mulliken charges with hydrogens summed into heavy atoms:
               1
     1  Ru   1.006180
     2  O   -0.472819
     3  C   -0.167191
     4  P    0.019320
     5  N   -0.162800
     6  C    0.104686
     9  C    0.037656
    10  C    0.028382
    12  C    0.023622
    14  C    0.008505
    16  C    0.079746
    17  C    0.158597
    20  N   -0.161534
    21  C    0.029435
    22  C    0.011575
    26  C    0.005038
    30  C   -0.010982
    34  C    0.021456
    35  C    0.006585
    39  C   -0.008902
    43  C    0.004446
    47  C    0.007379
    51  C    0.099356
    54  C    0.002381
    58  C    0.119906
    61  O   -0.972093
    62  Ru   1.006292
    63  C   -0.167278
    64  O   -0.472848
    65  P    0.019262
    66  N   -0.161630
    67  N   -0.162779
    68  C    0.158751
    71  C    0.079737
    72  C    0.008504
    74  C    0.023632
    76  C    0.028378
    78  C    0.037643
    79  C    0.104712
    82  C    0.021546
    83  C    0.006549
    87  C    0.004428
    91  C   -0.008954
    95  C    0.029394
    96  C    0.011581
   100  C   -0.010975
   104  C    0.005028
   108  C    0.119993
   111  C    0.007373
   115  C    0.099431
   118  C    0.002428
   122  O   -0.304055
   123  O   -0.304071
 Electronic spatial extent (au):  <R**2>=          32994.7405
 Charge=             -0.0000 electrons
 Dipole moment (field-independent basis, Debye):
    X=             -0.0011    Y=              4.8053    Z=             -0.0074  Tot=              4.8053
 Quadrupole moment (field-independent basis, Debye-Ang):
   XX=           -251.5145   YY=           -346.6588   ZZ=           -365.2459
   XY=              0.0158   XZ=             -8.6670   YZ=             -0.0397
 Traceless Quadrupole moment (field-independent basis, Debye-Ang):
   XX=             69.6252   YY=            -25.5190   ZZ=            -44.1062
   XY=              0.0158   XZ=             -8.6670   YZ=             -0.0397
 Octapole moment (field-independent basis, Debye-Ang**2):
  XXX=             -0.0897  YYY=              1.1251  ZZZ=              0.3502  XYY=              0.4137
  XXY=              7.9493  XXZ=             -0.1171  XZZ=             -0.3841  YZZ=            -53.7244
  YYZ=             -0.1335  XYZ=            138.7916
 Hexadecapole moment (field-independent basis, Debye-Ang**3):
 XXXX=         -19195.8328 YYYY=         -10145.6694 ZZZZ=         -10141.2023 XXXY=             -0.3399
 XXXZ=           -762.5732 YYYX=             -0.6524 YYYZ=             -0.4533 ZZZX=             29.3718
 ZZZY=             -0.0688 XXYY=          -5373.6248 XXZZ=          -5713.1100 YYZZ=          -3409.5072
 XXYZ=             -0.7075 YYXZ=           -184.3054 ZZXY=              0.6578
 N-N= 1.046061116206D+04 E-N=-2.798060431266D+04  KE= 2.894229083580D+03
 1\1\GINC-NODE113\SP\RPBE1PBE\GenECP\C40H72N4O5P2Ru2\JS1212\16-Apr-2020
 \0\\# genecp pbe1pbe EmpiricalDispersion=GD3BJ scrf=(SMD,solvent=water
 ) geom=allcheck\\Title Card Required\\0,1\Ru,0,1.9517283334,-0.1944016
 102,-0.3240639949\O,0,2.0162728206,-1.671318648,1.1292251582\C,0,1.900
 2175258,0.8206773799,-1.8410422318\P,0,2.9036513932,1.4603189851,0.887
 2696878\N,0,4.0091781707,-0.6601016622,-0.6708578012\C,0,4.5410846128,
 1.605467613,-0.0013049793\H,0,4.3335170676,2.2487059195,-0.8734166657\
 H,0,5.3292625431,2.093758551,0.5899323959\C,0,4.9812721934,0.259897450
 6,-0.47825401\C,0,6.3248566725,-0.0404555674,-0.6883102419\H,0,7.07792
 29486,0.730033177,-0.5199638674\C,0,6.6804889884,-1.3180790856,-1.1013
 070413\H,0,7.7265573015,-1.5756154402,-1.2762768629\C,0,5.6765963228,-
 2.2614045062,-1.2828719812\H,0,5.9064278323,-3.2788416778,-1.600807150
 4\C,0,4.3491946652,-1.9098979593,-1.0541792711\C,0,3.2487415881,-2.920
 1739954,-1.1475669694\H,0,3.6508498307,-3.8418231667,-1.6114847349\H,0
 ,2.9284490468,-3.117709229,-0.1082631796\N,0,2.0771266146,-2.412256230
 1,-1.8422558357\C,0,2.3175837424,3.2724526877,0.8579356639\C,0,3.43617
 73196,4.2825806161,1.1323233896\H,0,4.2258276273,4.2427738362,0.367659
 9695\H,0,3.9011380614,4.1677594798,2.1170296029\H,0,3.0016113622,5.295
 4885404,1.0895696937\C,0,1.1844792233,3.4476674369,1.8675507341\H,0,0.
 6928065138,4.4202163528,1.7010152345\H,0,1.5451049134,3.435241998,2.90
 50484685\H,0,0.4207602355,2.6665319926,1.7636078762\C,0,1.7795817701,3
 .5562875981,-0.54190157\H,0,0.9576185996,2.8816404929,-0.7981081277\H,
 0,2.5509719392,3.4587890768,-1.3195148298\H,0,1.4044500422,4.592491645
 4,-0.5749381266\C,0,3.3672338294,0.9627230123,2.6650847795\C,0,4.08773
 39904,2.0537067832,3.4552388821\H,0,3.446511576,2.9169869974,3.6787313
 876\H,0,4.9992291568,2.4116844382,2.9515197412\H,0,4.4007788749,1.6242
 857976,4.4216477903\C,0,4.2883273336,-0.259828232,2.574877423\H,0,4.49
 96907423,-0.5990136603,3.6031483814\H,0,5.2560968002,-0.0230070265,2.1
 065961874\H,0,3.7854068474,-1.0777166914,2.0391563979\C,0,2.0852255211
 ,0.5413689456,3.3851902594\H,0,2.3480582818,0.1608331736,4.3869520669\
 H,0,1.6048958353,-0.267154229,2.8178479584\H,0,1.3787202463,1.37072220
 55,3.517775596\C,0,1.1852205128,-1.6998629891,-4.0636169575\H,0,0.4434
 569528,-2.4970569475,-4.2188316458\H,0,1.5238437236,-1.3610053802,-5.0
 536530302\H,0,0.6841617708,-0.8589328664,-3.568317251\C,0,0.9143807377
 ,-3.26435749,-1.6015261658\H,0,0.0412020493,-2.7670656999,-2.042053759
 2\H,0,0.7607722935,-3.2572317119,-0.5123811324\C,0,0.9997020923,-4.694
 5193789,-2.1192278964\H,0,1.1424055424,-4.7359558885,-3.2106883829\H,0
 ,0.0586631942,-5.2173651499,-1.8907870884\H,0,1.81541366,-5.2646218992
 ,-1.6484561008\C,0,2.3756142084,-2.1691703661,-3.2537287666\H,0,2.8136
 139543,-3.0781884159,-3.7203386315\H,0,3.1627349129,-1.398371103,-3.28
 47434485\O,0,0.0032781167,-0.4392718729,0.0551976004\Ru,0,-1.943989609
 7,-0.0938404188,0.3535634789\C,0,-1.8876524704,1.282881307,1.551817151
 3\O,0,-2.0158897658,-1.8992885988,-0.6631192654\P,0,-2.8881987764,1.19
 05586848,-1.250000378\N,0,-2.0797411136,-1.8358430147,2.3990712428\N,0
 ,-4.0037424146,-0.4428740596,0.8076837868\C,0,-3.2539677944,-2.5026877
 385,1.8605965503\H,0,-3.6602864431,-3.268655282,2.5494525308\H,0,-2.93
 47703243,-2.9671725804,0.9097538775\C,0,-4.3496420771,-1.5470803609,1.
 5045877978\C,0,-5.6786747351,-1.8202679698,1.8158509291\H,0,-5.9133709
 601,-2.7178800597,2.3888194364\C,0,-6.6780815536,-0.9527247294,1.39249
 33082\H,0,-7.7253323388,-1.150582208,1.6276935947\C,0,-6.3164170283,0.
 1705124243,0.6597700926\H,0,-7.0658064838,0.8735929606,0.2948139656\C,
 0,-4.9714296442,0.39908823,0.3798141336\C,0,-4.5248803954,1.5707675295
 ,-0.4322997509\H,0,-4.3143229594,2.4190162783,0.241162697\H,0,-5.31074
 09679,1.8907379981,-1.1317590212\C,0,-3.3544882237,0.2471304194,-2.836
 0339039\C,0,-4.0698661499,1.0966181343,-3.8849945652\H,0,-4.3850176857
 ,0.4306880528,-4.7057065531\H,0,-3.4246221728,1.8683925944,-4.32587958
 77\H,0,-4.979629062,1.5780941197,-3.4935653089\C,0,-2.0745541956,-0.35
 39841941,-3.4191814708\H,0,-2.3391805708,-0.9819646068,-4.2869580171\H
 ,0,-1.5984290189,-0.9882979983,-2.6593912366\H,0,-1.363867458,0.408417
 1396,-3.7630042787\C,0,-4.2814117332,-0.9048912235,-2.4300571238\H,0,-
 5.2479708997,-0.5492706863,-2.0411373476\H,0,-3.782336592,-1.556405815
 5,-1.6984114657\H,0,-4.4945492165,-1.5003560142,-3.3339667724\C,0,-2.2
 93709163,2.9445979046,-1.6954749513\C,0,-3.407799568,3.8529633305,-2.2
 252136803\H,0,-4.1971007973,4.0183076236,-1.4772284279\H,0,-3.87395769
 77,3.4867065745,-3.1458576827\H,0,-2.9684889649,4.8397313511,-2.448701
 692\C,0,-1.7535426674,3.5821710618,-0.4182328366\H,0,-1.3734418055,4.5
 891427961,-0.657116218\H,0,-0.9346933816,2.9941021237,0.0061301866\H,0
 ,-2.5249677325,3.6951443102,0.3572439892\C,0,-1.1604809211,2.844705196
 3,-2.715168193\H,0,-0.6645660373,3.8248560537,-2.8085119402\H,0,-1.521
 7611042,2.5629342824,-3.713508791\H,0,-0.4000067169,2.1147020739,-2.41
 0234551\C,0,-2.376632132,-1.2297229064,3.6971368527\H,0,-2.81887797,-1
 .9824717382,4.3853588817\H,0,-3.1600101038,-0.4740526733,3.5241579588\
 C,0,-1.1836437401,-0.5701477418,4.3566722167\H,0,-0.4460336303,-1.3023
 567656,4.7167006721\H,0,-1.520235926,0.0186439225,5.2225144418\H,0,-0.
 6782862004,0.1085312804,3.6583884418\C,0,-0.9210938971,-2.7266716781,2
 .3913489436\H,0,-0.0455519882,-2.135291632,2.6871110577\H,0,-0.7676365
 793,-3.0058661489,1.3385586957\C,0,-1.0131199357,-3.9707819171,3.26560
 68548\H,0,-1.1558203325,-3.7242014891,4.3296610075\H,0,-0.0745845837,-
 4.539498991,3.1831282435\H,0,-1.8315615514,-4.6405764551,2.9597376334\
 O,0,-1.929869845,2.0772355485,2.4091294438\O,0,1.9447841083,1.36245541
 83,-2.8765292804\H,0,1.0483579796,-1.678488576,1.229216437\H,0,-1.0479
 368595,-1.9373968594,-0.7555448371\\Version=ES64L-G16RevA.03\State=1-A
 \HF=-3033.6156969\RMSD=1.348e-09\Dipole=0.0044118,1.8740019,-0.2495732
 \Quadrupole=51.6387434,-19.208367,-32.4303764,-1.1117529,-7.1351794,-1
 .7822269\PG=C01 [X(C40H72N4O5P2Ru2)]\\@


 HE THAT FOLLOWS NATURE IS NEVER LOST.

                             -- BACON
 Job cpu time:       3 days  2 hours  7 minutes 14.5 seconds.
 Elapsed time:       0 days  4 hours 38 minutes 33.6 seconds.
 File lengths (MBytes):  RWF=   4494 Int=      0 D2E=      0 Chk=    482 Scr=      1
 Normal termination of Gaussian 16 at Thu Apr 16 02:46:17 2020.
