 Entering Gaussian System, Link 0=g16
 Initial command:
 /cluster/chemistry/gaussian/g16/l1.exe "/scratch/js1212.533851/scratch/Gau-8010.inp" -scrdir="/scratch/js1212.533851/scratch/"
 Entering Link 1 = /cluster/chemistry/gaussian/g16/l1.exe PID=      8011.
  
 Copyright (c) 1988,1990,1992,1993,1995,1998,2003,2009,2016,
            Gaussian, Inc.  All Rights Reserved.
  
 This is part of the Gaussian(R) 16 program.  It is based on
 the Gaussian(R) 09 system (copyright 2009, Gaussian, Inc.),
 the Gaussian(R) 03 system (copyright 2003, Gaussian, Inc.),
 the Gaussian(R) 98 system (copyright 1998, Gaussian, Inc.),
 the Gaussian(R) 94 system (copyright 1995, Gaussian, Inc.),
 the Gaussian 92(TM) system (copyright 1992, Gaussian, Inc.),
 the Gaussian 90(TM) system (copyright 1990, Gaussian, Inc.),
 the Gaussian 88(TM) system (copyright 1988, Gaussian, Inc.),
 the Gaussian 86(TM) system (copyright 1986, Carnegie Mellon
 University), and the Gaussian 82(TM) system (copyright 1983,
 Carnegie Mellon University). Gaussian is a federally registered
 trademark of Gaussian, Inc.
  
 This software contains proprietary and confidential information,
 including trade secrets, belonging to Gaussian, Inc.
  
 This software is provided under written license and may be
 used, copied, transmitted, or stored only in accord with that
 written license.
  
 The following legend is applicable only to US Government
 contracts under FAR:
  
                    RESTRICTED RIGHTS LEGEND
  
 Use, reproduction and disclosure by the US Government is
 subject to restrictions as set forth in subparagraphs (a)
 and (c) of the Commercial Computer Software - Restricted
 Rights clause in FAR 52.227-19.
  
 Gaussian, Inc.
 340 Quinnipiac St., Bldg. 40, Wallingford CT 06492
  
  
 ---------------------------------------------------------------
 Warning -- This program may not be used in any manner that
 competes with the business of Gaussian, Inc. or will provide
 assistance to any competitor of Gaussian, Inc.  The licensee
 of this program is prohibited from giving any competitor of
 Gaussian, Inc. access to this program.  By using this program,
 the user acknowledges that Gaussian, Inc. is engaged in the
 business of creating and licensing software in the field of
 computational chemistry and represents and warrants to the
 licensee that it is not a competitor of Gaussian, Inc. and that
 it will not use this program in any manner prohibited above.
 ---------------------------------------------------------------
  

 Cite this work as:
 Gaussian 16, Revision A.03,
 M. J. Frisch, G. W. Trucks, H. B. Schlegel, G. E. Scuseria, 
 M. A. Robb, J. R. Cheeseman, G. Scalmani, V. Barone, 
 G. A. Petersson, H. Nakatsuji, X. Li, M. Caricato, A. V. Marenich, 
 J. Bloino, B. G. Janesko, R. Gomperts, B. Mennucci, H. P. Hratchian, 
 J. V. Ortiz, A. F. Izmaylov, J. L. Sonnenberg, D. Williams-Young, 
 F. Ding, F. Lipparini, F. Egidi, J. Goings, B. Peng, A. Petrone, 
 T. Henderson, D. Ranasinghe, V. G. Zakrzewski, J. Gao, N. Rega, 
 G. Zheng, W. Liang, M. Hada, M. Ehara, K. Toyota, R. Fukuda, 
 J. Hasegawa, M. Ishida, T. Nakajima, Y. Honda, O. Kitao, H. Nakai, 
 T. Vreven, K. Throssell, J. A. Montgomery, Jr., J. E. Peralta, 
 F. Ogliaro, M. J. Bearpark, J. J. Heyd, E. N. Brothers, K. N. Kudin, 
 V. N. Staroverov, T. A. Keith, R. Kobayashi, J. Normand, 
 K. Raghavachari, A. P. Rendell, J. C. Burant, S. S. Iyengar, 
 J. Tomasi, M. Cossi, J. M. Millam, M. Klene, C. Adamo, R. Cammi, 
 J. W. Ochterski, R. L. Martin, K. Morokuma, O. Farkas, 
 J. B. Foresman, and D. J. Fox, Gaussian, Inc., Wallingford CT, 2016.
 
 ******************************************
 Gaussian 16:  ES64L-G16RevA.03 25-Dec-2016
                 8-Oct-2019 
 ******************************************
 %rwf=/scratch/js1212.533851/3-Full-GPOF-Disp.rwf
 %nosave
 %nprocshared=20
 Will use up to   20 processors via shared memory.
 %mem=3000MB
 %chk=/scratch/js1212.533851/3-Full-GPOF-Disp.chk
 ---------------------------------------------------
 # opt freq genecp pbe1pbe EmpiricalDispersion=GD3BJ
 ---------------------------------------------------
 1/18=20,19=15,26=3,38=1/1,3;
 2/9=110,12=2,17=6,18=5,40=1/2;
 3/5=7,11=2,16=1,17=8,25=1,30=1,71=1,74=-13,124=41/1,2,3;
 4//1;
 5/5=2,38=5/2;
 6/7=2,8=2,9=2,10=2,28=1/1;
 7//1,2,3,16;
 1/18=20,19=15,26=3/3(2);
 2/9=110/2;
 99//99;
 2/9=110/2;
 3/5=7,6=1,11=2,16=1,17=8,25=1,30=1,71=1,74=-13,82=7,124=41/1,2,3;
 4/5=5,16=3,69=1/1;
 5/5=2,38=5/2;
 7//1,2,3,16;
 1/18=20,19=15,26=3/3(-5);
 2/9=110/2;
 6/7=2,8=2,9=2,10=2,19=2,28=1/1;
 99/9=1/99;
 -------------------
 Title Card Required
 -------------------
 Symbolic Z-matrix:
 Charge =  0 Multiplicity = 1
 N                    -0.71613   1.41574  -0.05925 
 C                    -1.93907   1.88319   0.25176 
 C                     0.19787   2.20882  -0.65294 
 C                    -2.27536   3.21553   0.04439 
 C                    -1.31917   4.06993  -0.50091 
 C                    -0.07735   3.56108  -0.86271 
 C                    -2.86601   0.8615    0.84316 
 H                    -3.27284   3.57288   0.30295 
 H                    -1.55124   5.12383  -0.66575 
 H                     0.67619   4.19852  -1.32694 
 C                     1.45746   1.54782  -1.12254 
 N                    -2.75005  -0.44644   0.16941 
 H                    -3.90342   1.24009   0.84051 
 H                    -2.58366   0.70953   1.89821 
 H                     1.22985   1.15342  -2.12939 
 P                     1.80041  -0.02187  -0.16165 
 H                     2.29557   2.25663  -1.18391 
 Ru                   -0.40013  -0.6139    0.08258 
 C                    -3.3141   -0.3983   -1.19933 
 C                     2.98294  -1.00916  -1.2988 
 C                    -3.41173  -1.4676    1.01529 
 C                     2.74683   0.59375   1.38379 
 C                     2.12093  -1.74825  -2.32709 
 C                     3.73368  -2.06438  -0.48068 
 C                     3.97869  -0.11711  -2.04607 
 C                     1.90249   1.69998   2.03063 
 C                     4.12209   1.18474   1.05938 
 C                     2.91433  -0.54097   2.40179 
 C                    -0.39811  -0.83861   1.90353 
 O                    -0.46272  -1.03685   3.0532 
 H                    -2.72291   0.33763  -1.75992 
 C                    -4.80763  -0.12378  -1.30933 
 H                    -3.06684  -1.35812  -1.66958 
 H                    -2.87534  -1.46876   1.97569 
 C                    -3.38477  -2.86037   0.41929 
 H                    -4.4507   -1.14785   1.2342 
 O                    -0.33103  -2.63119  -0.3307 
 H                     0.17002  -3.1198    0.3325 
 O                    -0.54545  -0.42018  -1.96195 
 H                    -0.52467  -1.34617  -2.24232 
 H                    -2.35818  -3.10009   0.09006 
 H                    -4.07519  -2.96469  -0.43161 
 H                    -3.70098  -3.58359   1.18654 
 H                    -5.08262  -0.11557  -2.37513 
 H                    -5.10059   0.8552   -0.89859 
 H                    -5.42331  -0.89448  -0.82079 
 H                     2.78901  -2.35692  -2.96085 
 H                     1.5633   -1.05209  -2.96742 
 H                     1.38735  -2.39879  -1.82527 
 H                     4.26673  -2.73217  -1.17795 
 H                     3.04318  -2.68876   0.10666 
 H                     4.48477  -1.63412   0.1962 
 H                     4.60878  -0.75934  -2.68486 
 H                     4.64941   0.44707  -1.38596 
 H                     3.46926   0.59191  -2.71488 
 H                     4.83833   0.42659   0.71487 
 H                     4.53941   1.63141   1.97788 
 H                     4.07365   1.98477   0.30445 
 H                     3.54681  -1.35549   2.02857 
 H                     1.9518   -0.96657   2.71038 
 H                     3.40008  -0.13426   3.3051 
 H                     2.36467   1.97805   2.99239 
 H                     0.87306   1.37443   2.23253 
 H                     1.86384   2.60905   1.4116 
 

 GradGradGradGradGradGradGradGradGradGradGradGradGradGradGradGradGradGrad
 Berny optimization.
 Initialization pass.
                           ----------------------------
                           !    Initial Parameters    !
                           ! (Angstroms and Degrees)  !
 --------------------------                            --------------------------
 ! Name  Definition              Value          Derivative Info.                !
 --------------------------------------------------------------------------------
 ! R1    R(1,2)                  1.3457         estimate D2E/DX2                !
 ! R2    R(1,3)                  1.3479         estimate D2E/DX2                !
 ! R3    R(1,18)                 2.059          estimate D2E/DX2                !
 ! R4    R(2,4)                  1.3897         estimate D2E/DX2                !
 ! R5    R(2,7)                  1.5009         estimate D2E/DX2                !
 ! R6    R(3,6)                  1.3958         estimate D2E/DX2                !
 ! R7    R(3,11)                 1.498          estimate D2E/DX2                !
 ! R8    R(4,5)                  1.3934         estimate D2E/DX2                !
 ! R9    R(4,8)                  1.0907         estimate D2E/DX2                !
 ! R10   R(5,6)                  1.3899         estimate D2E/DX2                !
 ! R11   R(5,9)                  1.0917         estimate D2E/DX2                !
 ! R12   R(6,10)                 1.0907         estimate D2E/DX2                !
 ! R13   R(7,12)                 1.4758         estimate D2E/DX2                !
 ! R14   R(7,13)                 1.1043         estimate D2E/DX2                !
 ! R15   R(7,14)                 1.1027         estimate D2E/DX2                !
 ! R16   R(11,15)                1.105          estimate D2E/DX2                !
 ! R17   R(11,16)                1.8721         estimate D2E/DX2                !
 ! R18   R(11,17)                1.0994         estimate D2E/DX2                !
 ! R19   R(12,19)                1.4812         estimate D2E/DX2                !
 ! R20   R(12,21)                1.4819         estimate D2E/DX2                !
 ! R21   R(16,18)                2.2918         estimate D2E/DX2                !
 ! R22   R(16,20)                1.9147         estimate D2E/DX2                !
 ! R23   R(16,22)                1.9139         estimate D2E/DX2                !
 ! R24   R(18,29)                1.8348         estimate D2E/DX2                !
 ! R25   R(18,37)                2.0603         estimate D2E/DX2                !
 ! R26   R(18,39)                2.0588         estimate D2E/DX2                !
 ! R27   R(19,31)                1.0979         estimate D2E/DX2                !
 ! R28   R(19,32)                1.5225         estimate D2E/DX2                !
 ! R29   R(19,33)                1.0971         estimate D2E/DX2                !
 ! R30   R(20,23)                1.5319         estimate D2E/DX2                !
 ! R31   R(20,24)                1.5318         estimate D2E/DX2                !
 ! R32   R(20,25)                1.5316         estimate D2E/DX2                !
 ! R33   R(21,34)                1.1            estimate D2E/DX2                !
 ! R34   R(21,35)                1.5152         estimate D2E/DX2                !
 ! R35   R(21,36)                1.1089         estimate D2E/DX2                !
 ! R36   R(22,26)                1.5346         estimate D2E/DX2                !
 ! R37   R(22,27)                1.5316         estimate D2E/DX2                !
 ! R38   R(22,28)                1.5336         estimate D2E/DX2                !
 ! R39   R(23,47)                1.1038         estimate D2E/DX2                !
 ! R40   R(23,48)                1.098          estimate D2E/DX2                !
 ! R41   R(23,49)                1.1014         estimate D2E/DX2                !
 ! R42   R(24,50)                1.1028         estimate D2E/DX2                !
 ! R43   R(24,51)                1.1007         estimate D2E/DX2                !
 ! R44   R(24,52)                1.0988         estimate D2E/DX2                !
 ! R45   R(25,53)                1.1034         estimate D2E/DX2                !
 ! R46   R(25,54)                1.0972         estimate D2E/DX2                !
 ! R47   R(25,55)                1.0998         estimate D2E/DX2                !
 ! R48   R(26,62)                1.1027         estimate D2E/DX2                !
 ! R49   R(26,63)                1.0984         estimate D2E/DX2                !
 ! R50   R(26,64)                1.1005         estimate D2E/DX2                !
 ! R51   R(27,56)                1.0984         estimate D2E/DX2                !
 ! R52   R(27,57)                1.1033         estimate D2E/DX2                !
 ! R53   R(27,58)                1.1011         estimate D2E/DX2                !
 ! R54   R(28,59)                1.0967         estimate D2E/DX2                !
 ! R55   R(28,60)                1.0967         estimate D2E/DX2                !
 ! R56   R(28,61)                1.1033         estimate D2E/DX2                !
 ! R57   R(29,30)                1.1684         estimate D2E/DX2                !
 ! R58   R(32,44)                1.1007         estimate D2E/DX2                !
 ! R59   R(32,45)                1.1013         estimate D2E/DX2                !
 ! R60   R(32,46)                1.1008         estimate D2E/DX2                !
 ! R61   R(35,41)                1.1044         estimate D2E/DX2                !
 ! R62   R(35,42)                1.1007         estimate D2E/DX2                !
 ! R63   R(35,43)                1.1008         estimate D2E/DX2                !
 ! R64   R(37,38)                0.9642         estimate D2E/DX2                !
 ! R65   R(39,40)                0.9677         estimate D2E/DX2                !
 ! A1    A(2,1,3)              120.9078         estimate D2E/DX2                !
 ! A2    A(2,1,18)             117.7737         estimate D2E/DX2                !
 ! A3    A(3,1,18)             120.4155         estimate D2E/DX2                !
 ! A4    A(1,2,4)              121.2298         estimate D2E/DX2                !
 ! A5    A(1,2,7)              114.5733         estimate D2E/DX2                !
 ! A6    A(4,2,7)              124.1915         estimate D2E/DX2                !
 ! A7    A(1,3,6)              120.1659         estimate D2E/DX2                !
 ! A8    A(1,3,11)             116.6552         estimate D2E/DX2                !
 ! A9    A(6,3,11)             123.1039         estimate D2E/DX2                !
 ! A10   A(2,4,5)              118.6984         estimate D2E/DX2                !
 ! A11   A(2,4,8)              120.0047         estimate D2E/DX2                !
 ! A12   A(5,4,8)              121.2963         estimate D2E/DX2                !
 ! A13   A(4,5,6)              119.3717         estimate D2E/DX2                !
 ! A14   A(4,5,9)              120.3423         estimate D2E/DX2                !
 ! A15   A(6,5,9)              120.2685         estimate D2E/DX2                !
 ! A16   A(3,6,5)              119.4528         estimate D2E/DX2                !
 ! A17   A(3,6,10)             119.5987         estimate D2E/DX2                !
 ! A18   A(5,6,10)             120.9358         estimate D2E/DX2                !
 ! A19   A(2,7,12)             112.0156         estimate D2E/DX2                !
 ! A20   A(2,7,13)             110.2332         estimate D2E/DX2                !
 ! A21   A(2,7,14)             108.2204         estimate D2E/DX2                !
 ! A22   A(12,7,13)            112.1193         estimate D2E/DX2                !
 ! A23   A(12,7,14)            107.1298         estimate D2E/DX2                !
 ! A24   A(13,7,14)            106.8626         estimate D2E/DX2                !
 ! A25   A(3,11,15)            105.6598         estimate D2E/DX2                !
 ! A26   A(3,11,16)            111.291          estimate D2E/DX2                !
 ! A27   A(3,11,17)            111.9643         estimate D2E/DX2                !
 ! A28   A(15,11,16)           101.896          estimate D2E/DX2                !
 ! A29   A(15,11,17)           109.6504         estimate D2E/DX2                !
 ! A30   A(16,11,17)           115.4413         estimate D2E/DX2                !
 ! A31   A(7,12,19)            111.2931         estimate D2E/DX2                !
 ! A32   A(7,12,21)            108.3621         estimate D2E/DX2                !
 ! A33   A(19,12,21)           112.3231         estimate D2E/DX2                !
 ! A34   A(11,16,18)            95.4741         estimate D2E/DX2                !
 ! A35   A(11,16,20)           103.9244         estimate D2E/DX2                !
 ! A36   A(11,16,22)           103.6116         estimate D2E/DX2                !
 ! A37   A(18,16,20)           121.5392         estimate D2E/DX2                !
 ! A38   A(18,16,22)           118.1535         estimate D2E/DX2                !
 ! A39   A(20,16,22)           109.8775         estimate D2E/DX2                !
 ! A40   A(1,18,16)             83.4183         estimate D2E/DX2                !
 ! A41   A(1,18,29)            100.9097         estimate D2E/DX2                !
 ! A42   A(1,18,37)            163.034          estimate D2E/DX2                !
 ! A43   A(1,18,39)             80.0965         estimate D2E/DX2                !
 ! A44   A(16,18,29)            97.8363         estimate D2E/DX2                !
 ! A45   A(16,18,37)           101.4987         estimate D2E/DX2                !
 ! A46   A(16,18,39)            86.4248         estimate D2E/DX2                !
 ! A47   A(29,18,37)            94.5383         estimate D2E/DX2                !
 ! A48   A(37,18,39)            83.99           estimate D2E/DX2                !
 ! A49   A(12,19,31)           106.7724         estimate D2E/DX2                !
 ! A50   A(12,19,32)           116.4988         estimate D2E/DX2                !
 ! A51   A(12,19,33)           106.3702         estimate D2E/DX2                !
 ! A52   A(31,19,32)           111.7447         estimate D2E/DX2                !
 ! A53   A(31,19,33)           104.2543         estimate D2E/DX2                !
 ! A54   A(32,19,33)           110.3573         estimate D2E/DX2                !
 ! A55   A(16,20,23)           107.4517         estimate D2E/DX2                !
 ! A56   A(16,20,24)           109.9191         estimate D2E/DX2                !
 ! A57   A(16,20,25)           113.0152         estimate D2E/DX2                !
 ! A58   A(23,20,24)           107.5738         estimate D2E/DX2                !
 ! A59   A(23,20,25)           108.6233         estimate D2E/DX2                !
 ! A60   A(24,20,25)           110.0707         estimate D2E/DX2                !
 ! A61   A(12,21,34)           106.3408         estimate D2E/DX2                !
 ! A62   A(12,21,35)           113.6369         estimate D2E/DX2                !
 ! A63   A(12,21,36)           109.4106         estimate D2E/DX2                !
 ! A64   A(34,21,35)           109.4982         estimate D2E/DX2                !
 ! A65   A(34,21,36)           106.5479         estimate D2E/DX2                !
 ! A66   A(35,21,36)           111.0624         estimate D2E/DX2                !
 ! A67   A(16,22,26)           107.4664         estimate D2E/DX2                !
 ! A68   A(16,22,27)           113.3967         estimate D2E/DX2                !
 ! A69   A(16,22,28)           110.6104         estimate D2E/DX2                !
 ! A70   A(26,22,27)           107.7676         estimate D2E/DX2                !
 ! A71   A(26,22,28)           108.28           estimate D2E/DX2                !
 ! A72   A(27,22,28)           109.149          estimate D2E/DX2                !
 ! A73   A(20,23,47)           108.1113         estimate D2E/DX2                !
 ! A74   A(20,23,48)           111.7983         estimate D2E/DX2                !
 ! A75   A(20,23,49)           110.7266         estimate D2E/DX2                !
 ! A76   A(47,23,48)           108.7933         estimate D2E/DX2                !
 ! A77   A(47,23,49)           109.8159         estimate D2E/DX2                !
 ! A78   A(48,23,49)           107.5733         estimate D2E/DX2                !
 ! A79   A(20,24,50)           108.4414         estimate D2E/DX2                !
 ! A80   A(20,24,51)           111.6106         estimate D2E/DX2                !
 ! A81   A(20,24,52)           113.2202         estimate D2E/DX2                !
 ! A82   A(50,24,51)           107.283          estimate D2E/DX2                !
 ! A83   A(50,24,52)           107.2283         estimate D2E/DX2                !
 ! A84   A(51,24,52)           108.7965         estimate D2E/DX2                !
 ! A85   A(20,25,53)           108.3439         estimate D2E/DX2                !
 ! A86   A(20,25,54)           113.7895         estimate D2E/DX2                !
 ! A87   A(20,25,55)           111.7805         estimate D2E/DX2                !
 ! A88   A(53,25,54)           107.3674         estimate D2E/DX2                !
 ! A89   A(53,25,55)           106.7194         estimate D2E/DX2                !
 ! A90   A(54,25,55)           108.513          estimate D2E/DX2                !
 ! A91   A(22,26,62)           108.5905         estimate D2E/DX2                !
 ! A92   A(22,26,63)           112.3013         estimate D2E/DX2                !
 ! A93   A(22,26,64)           112.1907         estimate D2E/DX2                !
 ! A94   A(62,26,63)           107.8932         estimate D2E/DX2                !
 ! A95   A(62,26,64)           107.2788         estimate D2E/DX2                !
 ! A96   A(63,26,64)           108.3796         estimate D2E/DX2                !
 ! A97   A(22,27,56)           112.6815         estimate D2E/DX2                !
 ! A98   A(22,27,57)           108.6334         estimate D2E/DX2                !
 ! A99   A(22,27,58)           112.7115         estimate D2E/DX2                !
 ! A100  A(56,27,57)           107.0917         estimate D2E/DX2                !
 ! A101  A(56,27,58)           108.3707         estimate D2E/DX2                !
 ! A102  A(57,27,58)           107.0539         estimate D2E/DX2                !
 ! A103  A(22,28,59)           112.7439         estimate D2E/DX2                !
 ! A104  A(22,28,60)           112.2126         estimate D2E/DX2                !
 ! A105  A(22,28,61)           108.5902         estimate D2E/DX2                !
 ! A106  A(59,28,60)           108.2811         estimate D2E/DX2                !
 ! A107  A(59,28,61)           107.3668         estimate D2E/DX2                !
 ! A108  A(60,28,61)           107.4017         estimate D2E/DX2                !
 ! A109  A(19,32,44)           108.4433         estimate D2E/DX2                !
 ! A110  A(19,32,45)           113.2203         estimate D2E/DX2                !
 ! A111  A(19,32,46)           112.9767         estimate D2E/DX2                !
 ! A112  A(44,32,45)           106.7399         estimate D2E/DX2                !
 ! A113  A(44,32,46)           107.1707         estimate D2E/DX2                !
 ! A114  A(45,32,46)           107.9423         estimate D2E/DX2                !
 ! A115  A(21,35,41)           109.4704         estimate D2E/DX2                !
 ! A116  A(21,35,42)           112.3358         estimate D2E/DX2                !
 ! A117  A(21,35,43)           108.9444         estimate D2E/DX2                !
 ! A118  A(41,35,42)           109.3917         estimate D2E/DX2                !
 ! A119  A(41,35,43)           109.4017         estimate D2E/DX2                !
 ! A120  A(42,35,43)           107.2393         estimate D2E/DX2                !
 ! A121  A(18,37,38)           112.0634         estimate D2E/DX2                !
 ! A122  A(18,39,40)           101.3124         estimate D2E/DX2                !
 ! A123  L(29,18,39,1,-1)      181.0062         estimate D2E/DX2                !
 ! A124  L(18,29,30,13,-1)     178.451          estimate D2E/DX2                !
 ! A125  L(29,18,39,1,-2)      184.2522         estimate D2E/DX2                !
 ! A126  L(18,29,30,13,-2)     175.8608         estimate D2E/DX2                !
 ! D1    D(3,1,2,4)             -3.8014         estimate D2E/DX2                !
 ! D2    D(3,1,2,7)            177.0054         estimate D2E/DX2                !
 ! D3    D(18,1,2,4)          -172.9682         estimate D2E/DX2                !
 ! D4    D(18,1,2,7)             7.8385         estimate D2E/DX2                !
 ! D5    D(2,1,3,6)              4.8891         estimate D2E/DX2                !
 ! D6    D(2,1,3,11)          -172.0583         estimate D2E/DX2                !
 ! D7    D(18,1,3,6)           173.7708         estimate D2E/DX2                !
 ! D8    D(18,1,3,11)           -3.1767         estimate D2E/DX2                !
 ! D9    D(2,1,18,16)         -168.3644         estimate D2E/DX2                !
 ! D10   D(2,1,18,29)          -71.6146         estimate D2E/DX2                !
 ! D11   D(2,1,18,37)           83.6075         estimate D2E/DX2                !
 ! D12   D(2,1,18,39)          104.1332         estimate D2E/DX2                !
 ! D13   D(3,1,18,16)           22.413          estimate D2E/DX2                !
 ! D14   D(3,1,18,29)          119.1629         estimate D2E/DX2                !
 ! D15   D(3,1,18,37)          -85.6151         estimate D2E/DX2                !
 ! D16   D(3,1,18,39)          -65.0893         estimate D2E/DX2                !
 ! D17   D(1,2,4,5)              0.2296         estimate D2E/DX2                !
 ! D18   D(1,2,4,8)            179.9479         estimate D2E/DX2                !
 ! D19   D(7,2,4,5)            179.3426         estimate D2E/DX2                !
 ! D20   D(7,2,4,8)             -0.9391         estimate D2E/DX2                !
 ! D21   D(1,2,7,12)           -40.547          estimate D2E/DX2                !
 ! D22   D(1,2,7,13)          -166.1312         estimate D2E/DX2                !
 ! D23   D(1,2,7,14)            77.3299         estimate D2E/DX2                !
 ! D24   D(4,2,7,12)           140.287          estimate D2E/DX2                !
 ! D25   D(4,2,7,13)            14.7028         estimate D2E/DX2                !
 ! D26   D(4,2,7,14)          -101.8361         estimate D2E/DX2                !
 ! D27   D(1,3,6,5)             -2.4313         estimate D2E/DX2                !
 ! D28   D(1,3,6,10)           178.8535         estimate D2E/DX2                !
 ! D29   D(11,3,6,5)           174.3117         estimate D2E/DX2                !
 ! D30   D(11,3,6,10)           -4.4035         estimate D2E/DX2                !
 ! D31   D(1,3,11,15)           85.3713         estimate D2E/DX2                !
 ! D32   D(1,3,11,16)          -24.4452         estimate D2E/DX2                !
 ! D33   D(1,3,11,17)         -155.3121         estimate D2E/DX2                !
 ! D34   D(6,3,11,15)          -91.478          estimate D2E/DX2                !
 ! D35   D(6,3,11,16)          158.7055         estimate D2E/DX2                !
 ! D36   D(6,3,11,17)           27.8385         estimate D2E/DX2                !
 ! D37   D(2,4,5,6)              2.1419         estimate D2E/DX2                !
 ! D38   D(2,4,5,9)           -179.3776         estimate D2E/DX2                !
 ! D39   D(8,4,5,6)           -177.5726         estimate D2E/DX2                !
 ! D40   D(8,4,5,9)              0.9079         estimate D2E/DX2                !
 ! D41   D(4,5,6,3)             -1.0666         estimate D2E/DX2                !
 ! D42   D(4,5,6,10)           177.6309         estimate D2E/DX2                !
 ! D43   D(9,5,6,3)           -179.5483         estimate D2E/DX2                !
 ! D44   D(9,5,6,10)            -0.8508         estimate D2E/DX2                !
 ! D45   D(2,7,12,19)          -70.5818         estimate D2E/DX2                !
 ! D46   D(2,7,12,21)          165.4391         estimate D2E/DX2                !
 ! D47   D(13,7,12,19)          53.9613         estimate D2E/DX2                !
 ! D48   D(13,7,12,21)         -70.0179         estimate D2E/DX2                !
 ! D49   D(14,7,12,19)         170.8931         estimate D2E/DX2                !
 ! D50   D(14,7,12,21)          46.914          estimate D2E/DX2                !
 ! D51   D(3,11,16,18)          34.8222         estimate D2E/DX2                !
 ! D52   D(3,11,16,20)         159.2347         estimate D2E/DX2                !
 ! D53   D(3,11,16,22)         -85.9016         estimate D2E/DX2                !
 ! D54   D(15,11,16,18)        -77.3969         estimate D2E/DX2                !
 ! D55   D(15,11,16,20)         47.0155         estimate D2E/DX2                !
 ! D56   D(15,11,16,22)        161.8792         estimate D2E/DX2                !
 ! D57   D(17,11,16,18)        163.8667         estimate D2E/DX2                !
 ! D58   D(17,11,16,20)        -71.7208         estimate D2E/DX2                !
 ! D59   D(17,11,16,22)         43.1429         estimate D2E/DX2                !
 ! D60   D(7,12,19,31)          61.6633         estimate D2E/DX2                !
 ! D61   D(7,12,19,32)         -63.9713         estimate D2E/DX2                !
 ! D62   D(7,12,19,33)         172.5528         estimate D2E/DX2                !
 ! D63   D(21,12,19,31)       -176.6333         estimate D2E/DX2                !
 ! D64   D(21,12,19,32)         57.7321         estimate D2E/DX2                !
 ! D65   D(21,12,19,33)        -65.7438         estimate D2E/DX2                !
 ! D66   D(7,12,21,34)         -60.5375         estimate D2E/DX2                !
 ! D67   D(7,12,21,35)         178.9319         estimate D2E/DX2                !
 ! D68   D(7,12,21,36)          54.1711         estimate D2E/DX2                !
 ! D69   D(19,12,21,34)        176.1021         estimate D2E/DX2                !
 ! D70   D(19,12,21,35)         55.5715         estimate D2E/DX2                !
 ! D71   D(19,12,21,36)        -69.1893         estimate D2E/DX2                !
 ! D72   D(11,16,18,1)         -27.2614         estimate D2E/DX2                !
 ! D73   D(11,16,18,29)       -127.4235         estimate D2E/DX2                !
 ! D74   D(11,16,18,37)        136.2897         estimate D2E/DX2                !
 ! D75   D(11,16,18,39)         53.1682         estimate D2E/DX2                !
 ! D76   D(20,16,18,1)        -137.2882         estimate D2E/DX2                !
 ! D77   D(20,16,18,29)        122.5497         estimate D2E/DX2                !
 ! D78   D(20,16,18,37)         26.2629         estimate D2E/DX2                !
 ! D79   D(20,16,18,39)        -56.8586         estimate D2E/DX2                !
 ! D80   D(22,16,18,1)          81.3669         estimate D2E/DX2                !
 ! D81   D(22,16,18,29)        -18.7952         estimate D2E/DX2                !
 ! D82   D(22,16,18,37)       -115.082          estimate D2E/DX2                !
 ! D83   D(22,16,18,39)        161.7965         estimate D2E/DX2                !
 ! D84   D(11,16,20,23)        -82.8498         estimate D2E/DX2                !
 ! D85   D(11,16,20,24)        160.3704         estimate D2E/DX2                !
 ! D86   D(11,16,20,25)         36.968          estimate D2E/DX2                !
 ! D87   D(18,16,20,23)         22.6647         estimate D2E/DX2                !
 ! D88   D(18,16,20,24)        -94.1151         estimate D2E/DX2                !
 ! D89   D(18,16,20,25)        142.4825         estimate D2E/DX2                !
 ! D90   D(22,16,20,23)        166.818          estimate D2E/DX2                !
 ! D91   D(22,16,20,24)         50.0382         estimate D2E/DX2                !
 ! D92   D(22,16,20,25)        -73.3642         estimate D2E/DX2                !
 ! D93   D(11,16,22,26)         52.8807         estimate D2E/DX2                !
 ! D94   D(11,16,22,27)        -66.1128         estimate D2E/DX2                !
 ! D95   D(11,16,22,28)        170.8917         estimate D2E/DX2                !
 ! D96   D(18,16,22,26)        -51.0593         estimate D2E/DX2                !
 ! D97   D(18,16,22,27)       -170.0527         estimate D2E/DX2                !
 ! D98   D(18,16,22,28)         66.9518         estimate D2E/DX2                !
 ! D99   D(20,16,22,26)        163.4186         estimate D2E/DX2                !
 ! D100  D(20,16,22,27)         44.4252         estimate D2E/DX2                !
 ! D101  D(20,16,22,28)        -78.5703         estimate D2E/DX2                !
 ! D102  D(1,18,37,38)         171.4061         estimate D2E/DX2                !
 ! D103  D(16,18,37,38)         65.9825         estimate D2E/DX2                !
 ! D104  D(29,18,37,38)        -32.9761         estimate D2E/DX2                !
 ! D105  D(39,18,37,38)        151.0831         estimate D2E/DX2                !
 ! D106  D(1,18,39,40)        -173.7997         estimate D2E/DX2                !
 ! D107  D(16,18,39,40)        102.2662         estimate D2E/DX2                !
 ! D108  D(37,18,39,40)          0.2952         estimate D2E/DX2                !
 ! D109  D(12,19,32,44)        179.9237         estimate D2E/DX2                !
 ! D110  D(12,19,32,45)         61.6645         estimate D2E/DX2                !
 ! D111  D(12,19,32,46)        -61.4286         estimate D2E/DX2                !
 ! D112  D(31,19,32,44)         56.8308         estimate D2E/DX2                !
 ! D113  D(31,19,32,45)        -61.4284         estimate D2E/DX2                !
 ! D114  D(31,19,32,46)        175.4785         estimate D2E/DX2                !
 ! D115  D(33,19,32,44)        -58.6839         estimate D2E/DX2                !
 ! D116  D(33,19,32,45)       -176.9431         estimate D2E/DX2                !
 ! D117  D(33,19,32,46)         59.9638         estimate D2E/DX2                !
 ! D118  D(16,20,23,47)       -177.5255         estimate D2E/DX2                !
 ! D119  D(16,20,23,48)         62.7483         estimate D2E/DX2                !
 ! D120  D(16,20,23,49)        -57.1865         estimate D2E/DX2                !
 ! D121  D(24,20,23,47)        -59.2193         estimate D2E/DX2                !
 ! D122  D(24,20,23,48)       -178.9456         estimate D2E/DX2                !
 ! D123  D(24,20,23,49)         61.1196         estimate D2E/DX2                !
 ! D124  D(25,20,23,47)         59.898          estimate D2E/DX2                !
 ! D125  D(25,20,23,48)        -59.8282         estimate D2E/DX2                !
 ! D126  D(25,20,23,49)       -179.763          estimate D2E/DX2                !
 ! D127  D(16,20,24,50)        170.0352         estimate D2E/DX2                !
 ! D128  D(16,20,24,51)         52.0692         estimate D2E/DX2                !
 ! D129  D(16,20,24,52)        -71.0969         estimate D2E/DX2                !
 ! D130  D(23,20,24,50)         53.3319         estimate D2E/DX2                !
 ! D131  D(23,20,24,51)        -64.6341         estimate D2E/DX2                !
 ! D132  D(23,20,24,52)        172.1998         estimate D2E/DX2                !
 ! D133  D(25,20,24,50)        -64.8553         estimate D2E/DX2                !
 ! D134  D(25,20,24,51)        177.1786         estimate D2E/DX2                !
 ! D135  D(25,20,24,52)         54.0126         estimate D2E/DX2                !
 ! D136  D(16,20,25,53)       -179.2273         estimate D2E/DX2                !
 ! D137  D(16,20,25,54)         61.4422         estimate D2E/DX2                !
 ! D138  D(16,20,25,55)        -61.9129         estimate D2E/DX2                !
 ! D139  D(23,20,25,53)        -60.0844         estimate D2E/DX2                !
 ! D140  D(23,20,25,54)       -179.4148         estimate D2E/DX2                !
 ! D141  D(23,20,25,55)         57.23           estimate D2E/DX2                !
 ! D142  D(24,20,25,53)         57.4541         estimate D2E/DX2                !
 ! D143  D(24,20,25,54)        -61.8764         estimate D2E/DX2                !
 ! D144  D(24,20,25,55)        174.7684         estimate D2E/DX2                !
 ! D145  D(12,21,35,41)         48.7698         estimate D2E/DX2                !
 ! D146  D(12,21,35,42)        -72.9646         estimate D2E/DX2                !
 ! D147  D(12,21,35,43)        168.3647         estimate D2E/DX2                !
 ! D148  D(34,21,35,41)        -69.9657         estimate D2E/DX2                !
 ! D149  D(34,21,35,42)        168.3            estimate D2E/DX2                !
 ! D150  D(34,21,35,43)         49.6292         estimate D2E/DX2                !
 ! D151  D(36,21,35,41)        172.6384         estimate D2E/DX2                !
 ! D152  D(36,21,35,42)         50.904          estimate D2E/DX2                !
 ! D153  D(36,21,35,43)        -67.7667         estimate D2E/DX2                !
 ! D154  D(16,22,26,62)        172.7871         estimate D2E/DX2                !
 ! D155  D(16,22,26,63)         53.5568         estimate D2E/DX2                !
 ! D156  D(16,22,26,64)        -68.812          estimate D2E/DX2                !
 ! D157  D(27,22,26,62)        -64.6675         estimate D2E/DX2                !
 ! D158  D(27,22,26,63)        176.1023         estimate D2E/DX2                !
 ! D159  D(27,22,26,64)         53.7335         estimate D2E/DX2                !
 ! D160  D(28,22,26,62)         53.2769         estimate D2E/DX2                !
 ! D161  D(28,22,26,63)        -65.9534         estimate D2E/DX2                !
 ! D162  D(28,22,26,64)        171.6778         estimate D2E/DX2                !
 ! D163  D(16,22,27,56)        -68.8195         estimate D2E/DX2                !
 ! D164  D(16,22,27,57)        172.6858         estimate D2E/DX2                !
 ! D165  D(16,22,27,58)         54.2199         estimate D2E/DX2                !
 ! D166  D(26,22,27,56)        172.3603         estimate D2E/DX2                !
 ! D167  D(26,22,27,57)         53.8657         estimate D2E/DX2                !
 ! D168  D(26,22,27,58)        -64.6003         estimate D2E/DX2                !
 ! D169  D(28,22,27,56)         54.9776         estimate D2E/DX2                !
 ! D170  D(28,22,27,57)        -63.5171         estimate D2E/DX2                !
 ! D171  D(28,22,27,58)        178.0169         estimate D2E/DX2                !
 ! D172  D(16,22,28,59)         65.0157         estimate D2E/DX2                !
 ! D173  D(16,22,28,60)        -57.5711         estimate D2E/DX2                !
 ! D174  D(16,22,28,61)       -176.1373         estimate D2E/DX2                !
 ! D175  D(26,22,28,59)       -177.4717         estimate D2E/DX2                !
 ! D176  D(26,22,28,60)         59.9415         estimate D2E/DX2                !
 ! D177  D(26,22,28,61)        -58.6247         estimate D2E/DX2                !
 ! D178  D(27,22,28,59)        -60.413          estimate D2E/DX2                !
 ! D179  D(27,22,28,60)        177.0002         estimate D2E/DX2                !
 ! D180  D(27,22,28,61)         58.434          estimate D2E/DX2                !
 --------------------------------------------------------------------------------
 Trust Radius=3.00D-01 FncErr=1.00D-07 GrdErr=1.00D-06 EigMax=2.50D+02 EigMin=1.00D-04
 Number of steps in this run=    381 maximum allowed number of steps=    384.
 GradGradGradGradGradGradGradGradGradGradGradGradGradGradGradGradGradGrad

 Stoichiometry    C20H37N2O3PRu
 Framework group  C1[X(C20H37N2O3PRu)]
 Deg. of freedom   186
 Full point group                 C1      NOp   1
 Largest Abelian subgroup         C1      NOp   1
 Largest concise Abelian subgroup C1      NOp   1
                         Standard orientation:                         
 ---------------------------------------------------------------------
 Center     Atomic      Atomic             Coordinates (Angstroms)
 Number     Number       Type             X           Y           Z
 ---------------------------------------------------------------------
      1          7           0       -0.716130    1.415740   -0.059250
      2          6           0       -1.939070    1.883191    0.251760
      3          6           0        0.197870    2.208820   -0.652940
      4          6           0       -2.275360    3.215531    0.044390
      5          6           0       -1.319170    4.069931   -0.500910
      6          6           0       -0.077350    3.561080   -0.862710
      7          6           0       -2.866011    0.861501    0.843160
      8          1           0       -3.272840    3.572881    0.302950
      9          1           0       -1.551239    5.123831   -0.665750
     10          1           0        0.676190    4.198520   -1.326940
     11          6           0        1.457460    1.547820   -1.122540
     12          7           0       -2.750051   -0.446439    0.169410
     13          1           0       -3.903420    1.240091    0.840510
     14          1           0       -2.583661    0.709531    1.898210
     15          1           0        1.229849    1.153420   -2.129390
     16         15           0        1.800409   -0.021870   -0.161650
     17          1           0        2.295570    2.256630   -1.183910
     18         44           0       -0.400131   -0.613900    0.082580
     19          6           0       -3.314101   -0.398299   -1.199330
     20          6           0        2.982939   -1.009161   -1.298800
     21          6           0       -3.411731   -1.467599    1.015290
     22          6           0        2.746829    0.593750    1.383790
     23          6           0        2.120929   -1.748250   -2.327090
     24          6           0        3.733679   -2.064381   -0.480680
     25          6           0        3.978689   -0.117111   -2.046070
     26          6           0        1.902490    1.699980    2.030630
     27          6           0        4.122090    1.184739    1.059380
     28          6           0        2.914329   -0.540971    2.401790
     29          6           0       -0.398111   -0.838610    1.903530
     30          8           0       -0.462721   -1.036850    3.053200
     31          1           0       -2.722911    0.337631   -1.759920
     32          6           0       -4.807631   -0.123778   -1.309330
     33          1           0       -3.066841   -1.358119   -1.669580
     34          1           0       -2.875341   -1.468759    1.975690
     35          6           0       -3.384772   -2.860369    0.419290
     36          1           0       -4.450701   -1.147848    1.234200
     37          8           0       -0.331032   -2.631190   -0.330700
     38          1           0        0.170018   -3.119800    0.332500
     39          8           0       -0.545451   -0.420180   -1.961950
     40          1           0       -0.524671   -1.346170   -2.242320
     41          1           0       -2.358182   -3.100089    0.090060
     42          1           0       -4.075192   -2.964689   -0.431610
     43          1           0       -3.700982   -3.583589    1.186540
     44          1           0       -5.082621   -0.115568   -2.375130
     45          1           0       -5.100591    0.855202   -0.898590
     46          1           0       -5.423311   -0.894478   -0.820790
     47          1           0        2.789009   -2.356920   -2.960850
     48          1           0        1.563299   -1.052090   -2.967420
     49          1           0        1.387349   -2.398790   -1.825270
     50          1           0        4.266728   -2.732171   -1.177950
     51          1           0        3.043178   -2.688761    0.106660
     52          1           0        4.484769   -1.634121    0.196200
     53          1           0        4.608779   -0.759341   -2.684860
     54          1           0        4.649409    0.447069   -1.385960
     55          1           0        3.469259    0.591909   -2.714880
     56          1           0        4.838329    0.426589    0.714870
     57          1           0        4.539410    1.631409    1.977880
     58          1           0        4.073650    1.984769    0.304450
     59          1           0        3.546809   -1.355491    2.028570
     60          1           0        1.951799   -0.966570    2.710380
     61          1           0        3.400079   -0.134261    3.305100
     62          1           0        2.364670    1.978050    2.992390
     63          1           0        0.873060    1.374430    2.232530
     64          1           0        1.863840    2.609050    1.411600
 ---------------------------------------------------------------------
 Rotational constants (GHZ):           0.2474571           0.1520463           0.1317336
 General basis read from cards:  (5D, 7F)
 ======================================================================================================
                                       Pseudopotential Parameters
 ======================================================================================================
  Center     Atomic      Valence      Angular      Power
  Number     Number     Electrons     Momentum     of R      Exponent        Coefficient   SO-Coeffient
 ======================================================================================================
    1          7
                                   No pseudopotential on this center.
    2          6
                                   No pseudopotential on this center.
    3          6
                                   No pseudopotential on this center.
    4          6
                                   No pseudopotential on this center.
    5          6
                                   No pseudopotential on this center.
    6          6
                                   No pseudopotential on this center.
    7          6
                                   No pseudopotential on this center.
    8          1
                                   No pseudopotential on this center.
    9          1
                                   No pseudopotential on this center.
   10          1
                                   No pseudopotential on this center.
   11          6
                                   No pseudopotential on this center.
   12          7
                                   No pseudopotential on this center.
   13          1
                                   No pseudopotential on this center.
   14          1
                                   No pseudopotential on this center.
   15          1
                                   No pseudopotential on this center.
   16         15
                                   No pseudopotential on this center.
   17          1
                                   No pseudopotential on this center.
   18         44           16
                                      G and up 
                                                     2        1.0000000        0.00000000    0.00000000
                                      S - G
                                                     2       11.1052690      209.82297100    0.00000000
                                                     2        5.4147450       30.65472600    0.00000000
                                      P - G
                                                     2        9.7712710      146.33618200    0.00000000
                                                     2        5.0739910       24.12787700    0.00000000
                                      D - G
                                                     2        7.6714230       67.51589700    0.00000000
                                                     2        4.1365650        9.87010400    0.00000000
                                      F - G
                                                     2       11.3600000      -28.34061600    0.00000000
                                                     2        5.6800000       -4.94462900    0.00000000
   19          6
                                   No pseudopotential on this center.
   20          6
                                   No pseudopotential on this center.
   21          6
                                   No pseudopotential on this center.
   22          6
                                   No pseudopotential on this center.
   23          6
                                   No pseudopotential on this center.
   24          6
                                   No pseudopotential on this center.
   25          6
                                   No pseudopotential on this center.
   26          6
                                   No pseudopotential on this center.
   27          6
                                   No pseudopotential on this center.
   28          6
                                   No pseudopotential on this center.
   29          6
                                   No pseudopotential on this center.
   30          8
                                   No pseudopotential on this center.
   31          1
                                   No pseudopotential on this center.
   32          6
                                   No pseudopotential on this center.
   33          1
                                   No pseudopotential on this center.
   34          1
                                   No pseudopotential on this center.
   35          6
                                   No pseudopotential on this center.
   36          1
                                   No pseudopotential on this center.
   37          8
                                   No pseudopotential on this center.
   38          1
                                   No pseudopotential on this center.
   39          8
                                   No pseudopotential on this center.
   40          1
                                   No pseudopotential on this center.
   41          1
                                   No pseudopotential on this center.
   42          1
                                   No pseudopotential on this center.
   43          1
                                   No pseudopotential on this center.
   44          1
                                   No pseudopotential on this center.
   45          1
                                   No pseudopotential on this center.
   46          1
                                   No pseudopotential on this center.
   47          1
                                   No pseudopotential on this center.
   48          1
                                   No pseudopotential on this center.
   49          1
                                   No pseudopotential on this center.
   50          1
                                   No pseudopotential on this center.
   51          1
                                   No pseudopotential on this center.
   52          1
                                   No pseudopotential on this center.
   53          1
                                   No pseudopotential on this center.
   54          1
                                   No pseudopotential on this center.
   55          1
                                   No pseudopotential on this center.
   56          1
                                   No pseudopotential on this center.
   57          1
                                   No pseudopotential on this center.
   58          1
                                   No pseudopotential on this center.
   59          1
                                   No pseudopotential on this center.
   60          1
                                   No pseudopotential on this center.
   61          1
                                   No pseudopotential on this center.
   62          1
                                   No pseudopotential on this center.
   63          1
                                   No pseudopotential on this center.
   64          1
                                   No pseudopotential on this center.
 ======================================================================================================
 There are   618 symmetry adapted cartesian basis functions of A   symmetry.
 There are   589 symmetry adapted basis functions of A   symmetry.
   589 basis functions,  1220 primitive gaussians,   618 cartesian basis functions
   113 alpha electrons      113 beta electrons
       nuclear repulsion energy      3484.7489437924 Hartrees.
 NAtoms=   64 NActive=   64 NUniq=   64 SFac= 1.00D+00 NAtFMM=   60 NAOKFM=T Big=T
 Integral buffers will be    131072 words long.
 Raffenetti 2 integral format.
 Two-electron integral symmetry is turned on.
 Nuclear repulsion after empirical dispersion term =     3484.6528410545 Hartrees.
 One-electron integrals computed using PRISM.
   1 Symmetry operations used in ECPInt.
 ECPInt:  NShTT=   40186 NPrTT=  280000 LenC2=   37283 LenP2D=  141990.
 LDataN:  DoStor=T MaxTD1= 6 Len=  172
 Number of processors reduced to  16 by ecpmxn.
 NBasis=   589 RedAO= T EigKep=  4.40D-04  NBF=   589
 NBsUse=   589 1.00D-06 EigRej= -1.00D+00 NBFU=   589
 Defaulting to unpruned grid for atomic number  44.
 ExpMin= 1.60D-02 ExpMax= 9.48D+04 ExpMxC= 3.24D+03 IAcc=3 IRadAn=         5 AccDes= 0.00D+00
 Harris functional with IExCor= 1009 and IRadAn=       5 diagonalized for initial guess.
 HarFok:  IExCor= 1009 AccDes= 0.00D+00 IRadAn=         5 IDoV= 1 UseB2=F ITyADJ=14
 ICtDFT=  3500011 ScaDFX=  1.000000  1.000000  1.000000  1.000000
 Defaulting to unpruned grid for atomic number  44.
 FoFCou: FMM=F IPFlag=           0 FMFlag=      100000 FMFlg1=        2001
         NFxFlg=           0 DoJE=T BraDBF=F KetDBF=T FulRan=T
         wScrn=  0.000000 ICntrl=       500 IOpCl=  0 I1Cent=   200000004 NGrid=           0
         NMat0=    1 NMatS0=      1 NMatT0=    0 NMatD0=    1 NMtDS0=    0 NMtDT0=    0
 Petite list used in FoFCou.
 Requested convergence on RMS density matrix=1.00D-08 within 128 cycles.
 Requested convergence on MAX density matrix=1.00D-06.
 Requested convergence on             energy=1.00D-06.
 No special actions if energy rises.
 Defaulting to unpruned grid for atomic number  44.
 Defaulting to unpruned grid for atomic number  44.
 Defaulting to unpruned grid for atomic number  44.
 Defaulting to unpruned grid for atomic number  44.
 Defaulting to unpruned grid for atomic number  44.
 Defaulting to unpruned grid for atomic number  44.
 Defaulting to unpruned grid for atomic number  44.
 Defaulting to unpruned grid for atomic number  44.
 Defaulting to unpruned grid for atomic number  44.
 Defaulting to unpruned grid for atomic number  44.
 Defaulting to unpruned grid for atomic number  44.
 Defaulting to unpruned grid for atomic number  44.
 Defaulting to unpruned grid for atomic number  44.
 Defaulting to unpruned grid for atomic number  44.
 Defaulting to unpruned grid for atomic number  44.
 Defaulting to unpruned grid for atomic number  44.
 Defaulting to unpruned grid for atomic number  44.
 Defaulting to unpruned grid for atomic number  44.
 Defaulting to unpruned grid for atomic number  44.
 Defaulting to unpruned grid for atomic number  44.
 SCF Done:  E(RPBE1PBE) =  -1554.66524532     A.U. after   18 cycles
            NFock= 18  Conv=0.23D-08     -V/T= 2.0468

 **********************************************************************

            Population analysis using the SCF density.

 **********************************************************************

 Orbital symmetries:
       Occupied  (A) (A) (A) (A) (A) (A) (A) (A) (A) (A) (A) (A)
                 (A) (A) (A) (A) (A) (A) (A) (A) (A) (A) (A) (A)
                 (A) (A) (A) (A) (A) (A) (A) (A) (A) (A) (A) (A)
                 (A) (A) (A) (A) (A) (A) (A) (A) (A) (A) (A) (A)
                 (A) (A) (A) (A) (A) (A) (A) (A) (A) (A) (A) (A)
                 (A) (A) (A) (A) (A) (A) (A) (A) (A) (A) (A) (A)
                 (A) (A) (A) (A) (A) (A) (A) (A) (A) (A) (A) (A)
                 (A) (A) (A) (A) (A) (A) (A) (A) (A) (A) (A) (A)
                 (A) (A) (A) (A) (A) (A) (A) (A) (A) (A) (A) (A)
                 (A) (A) (A) (A) (A)
       Virtual   (A) (A) (A) (A) (A) (A) (A) (A) (A) (A) (A) (A)
                 (A) (A) (A) (A) (A) (A) (A) (A) (A) (A) (A) (A)
                 (A) (A) (A) (A) (A) (A) (A) (A) (A) (A) (A) (A)
                 (A) (A) (A) (A) (A) (A) (A) (A) (A) (A) (A) (A)
                 (A) (A) (A) (A) (A) (A) (A) (A) (A) (A) (A) (A)
                 (A) (A) (A) (A) (A) (A) (A) (A) (A) (A) (A) (A)
                 (A) (A) (A) (A) (A) (A) (A) (A) (A) (A) (A) (A)
                 (A) (A) (A) (A) (A) (A) (A) (A) (A) (A) (A) (A)
                 (A) (A) (A) (A) (A) (A) (A) (A) (A) (A) (A) (A)
                 (A) (A) (A) (A) (A) (A) (A) (A) (A) (A) (A) (A)
                 (A) (A) (A) (A) (A) (A) (A) (A) (A) (A) (A) (A)
                 (A) (A) (A) (A) (A) (A) (A) (A) (A) (A) (A) (A)
                 (A) (A) (A) (A) (A) (A) (A) (A) (A) (A) (A) (A)
                 (A) (A) (A) (A) (A) (A) (A) (A) (A) (A) (A) (A)
                 (A) (A) (A) (A) (A) (A) (A) (A) (A) (A) (A) (A)
                 (A) (A) (A) (A) (A) (A) (A) (A) (A) (A) (A) (A)
                 (A) (A) (A) (A) (A) (A) (A) (A) (A) (A) (A) (A)
                 (A) (A) (A) (A) (A) (A) (A) (A) (A) (A) (A) (A)
                 (A) (A) (A) (A) (A) (A) (A) (A) (A) (A) (A) (A)
                 (A) (A) (A) (A) (A) (A) (A) (A) (A) (A) (A) (A)
                 (A) (A) (A) (A) (A) (A) (A) (A) (A) (A) (A) (A)
                 (A) (A) (A) (A) (A) (A) (A) (A) (A) (A) (A) (A)
                 (A) (A) (A) (A) (A) (A) (A) (A) (A) (A) (A) (A)
                 (A) (A) (A) (A) (A) (A) (A) (A) (A) (A) (A) (A)
                 (A) (A) (A) (A) (A) (A) (A) (A) (A) (A) (A) (A)
                 (A) (A) (A) (A) (A) (A) (A) (A) (A) (A) (A) (A)
                 (A) (A) (A) (A) (A) (A) (A) (A) (A) (A) (A) (A)
                 (A) (A) (A) (A) (A) (A) (A) (A) (A) (A) (A) (A)
                 (A) (A) (A) (A) (A) (A) (A) (A) (A) (A) (A) (A)
                 (A) (A) (A) (A) (A) (A) (A) (A) (A) (A) (A) (A)
                 (A) (A) (A) (A) (A) (A) (A) (A) (A) (A) (A) (A)
                 (A) (A) (A) (A) (A) (A) (A) (A) (A) (A) (A) (A)
                 (A) (A) (A) (A) (A) (A) (A) (A) (A) (A) (A) (A)
                 (A) (A) (A) (A) (A) (A) (A) (A) (A) (A) (A) (A)
                 (A) (A) (A) (A) (A) (A) (A) (A) (A) (A) (A) (A)
                 (A) (A) (A) (A) (A) (A) (A) (A) (A) (A) (A) (A)
                 (A) (A) (A) (A) (A) (A) (A) (A) (A) (A) (A) (A)
                 (A) (A) (A) (A) (A) (A) (A) (A) (A) (A) (A) (A)
                 (A) (A) (A) (A) (A) (A) (A) (A) (A) (A) (A) (A)
                 (A) (A) (A) (A) (A) (A) (A) (A)
 The electronic state is 1-A.
 Alpha  occ. eigenvalues --  -77.25858 -19.24604 -19.12727 -19.11671 -14.44799
 Alpha  occ. eigenvalues --  -14.43068 -10.30487 -10.30096 -10.30082 -10.27937
 Alpha  occ. eigenvalues --  -10.27405 -10.26483 -10.26417 -10.26320 -10.25798
 Alpha  occ. eigenvalues --  -10.25387 -10.25159 -10.24380 -10.23658 -10.22957
 Alpha  occ. eigenvalues --  -10.22840 -10.22771 -10.22508 -10.22403 -10.20045
 Alpha  occ. eigenvalues --  -10.19996  -6.63733  -4.77388  -4.77301  -4.77040
 Alpha  occ. eigenvalues --   -3.03152  -1.86956  -1.85872  -1.85577  -1.10962
 Alpha  occ. eigenvalues --   -1.01477  -0.96682  -0.90130  -0.89103  -0.85840
 Alpha  occ. eigenvalues --   -0.85188  -0.84214  -0.83232  -0.77560  -0.77448
 Alpha  occ. eigenvalues --   -0.74843  -0.71599  -0.71186  -0.70975  -0.70468
 Alpha  occ. eigenvalues --   -0.69077  -0.66876  -0.66301  -0.63685  -0.62773
 Alpha  occ. eigenvalues --   -0.57597  -0.56650  -0.55223  -0.54535  -0.53986
 Alpha  occ. eigenvalues --   -0.52506  -0.51124  -0.50497  -0.49110  -0.48416
 Alpha  occ. eigenvalues --   -0.47294  -0.46706  -0.46180  -0.45729  -0.45376
 Alpha  occ. eigenvalues --   -0.44919  -0.44678  -0.44314  -0.43885  -0.43692
 Alpha  occ. eigenvalues --   -0.42841  -0.42406  -0.42245  -0.41950  -0.41173
 Alpha  occ. eigenvalues --   -0.40887  -0.40099  -0.39975  -0.39659  -0.39294
 Alpha  occ. eigenvalues --   -0.38847  -0.38501  -0.37922  -0.37802  -0.37579
 Alpha  occ. eigenvalues --   -0.36780  -0.36641  -0.36014  -0.35453  -0.35157
 Alpha  occ. eigenvalues --   -0.34648  -0.33878  -0.33799  -0.33677  -0.33533
 Alpha  occ. eigenvalues --   -0.33157  -0.32137  -0.31424  -0.30283  -0.27942
 Alpha  occ. eigenvalues --   -0.27213  -0.26939  -0.26180  -0.25900  -0.24360
 Alpha  occ. eigenvalues --   -0.21048  -0.19104  -0.17665
 Alpha virt. eigenvalues --   -0.04752  -0.02886   0.00528   0.00993   0.02449
 Alpha virt. eigenvalues --    0.02988   0.03734   0.04223   0.04835   0.05835
 Alpha virt. eigenvalues --    0.06642   0.07628   0.07888   0.08228   0.08708
 Alpha virt. eigenvalues --    0.09131   0.09861   0.10018   0.10621   0.11009
 Alpha virt. eigenvalues --    0.11749   0.12198   0.12471   0.12724   0.13000
 Alpha virt. eigenvalues --    0.13284   0.13810   0.13875   0.14518   0.14728
 Alpha virt. eigenvalues --    0.15098   0.15422   0.15566   0.16219   0.16941
 Alpha virt. eigenvalues --    0.17160   0.17331   0.17874   0.18248   0.18449
 Alpha virt. eigenvalues --    0.18688   0.19545   0.19974   0.20292   0.20371
 Alpha virt. eigenvalues --    0.20552   0.20927   0.21148   0.21462   0.21992
 Alpha virt. eigenvalues --    0.22220   0.22386   0.22595   0.23017   0.23389
 Alpha virt. eigenvalues --    0.23585   0.23909   0.24456   0.25301   0.25541
 Alpha virt. eigenvalues --    0.26035   0.27188   0.27491   0.27627   0.28489
 Alpha virt. eigenvalues --    0.28960   0.29549   0.30247   0.31595   0.32080
 Alpha virt. eigenvalues --    0.32250   0.32641   0.34688   0.34942   0.35614
 Alpha virt. eigenvalues --    0.37071   0.38069   0.38504   0.40326   0.41314
 Alpha virt. eigenvalues --    0.41788   0.42478   0.42720   0.43792   0.44352
 Alpha virt. eigenvalues --    0.44885   0.45212   0.46480   0.47123   0.47828
 Alpha virt. eigenvalues --    0.48263   0.49302   0.49346   0.49841   0.50103
 Alpha virt. eigenvalues --    0.50591   0.50939   0.52095   0.52699   0.53577
 Alpha virt. eigenvalues --    0.53729   0.54532   0.54913   0.55189   0.55989
 Alpha virt. eigenvalues --    0.56367   0.57457   0.58113   0.58483   0.58578
 Alpha virt. eigenvalues --    0.59451   0.59733   0.60739   0.61065   0.61429
 Alpha virt. eigenvalues --    0.61538   0.61813   0.62608   0.62878   0.63367
 Alpha virt. eigenvalues --    0.63698   0.63870   0.64254   0.64563   0.65052
 Alpha virt. eigenvalues --    0.65320   0.65442   0.65658   0.65958   0.66268
 Alpha virt. eigenvalues --    0.66745   0.66889   0.67356   0.67617   0.67728
 Alpha virt. eigenvalues --    0.68388   0.68460   0.68886   0.69183   0.69389
 Alpha virt. eigenvalues --    0.70064   0.70281   0.71111   0.71222   0.71917
 Alpha virt. eigenvalues --    0.72212   0.72494   0.72997   0.73414   0.73713
 Alpha virt. eigenvalues --    0.73908   0.74486   0.74603   0.75178   0.75691
 Alpha virt. eigenvalues --    0.75801   0.76182   0.77373   0.77565   0.78587
 Alpha virt. eigenvalues --    0.78770   0.79043   0.79324   0.79659   0.80166
 Alpha virt. eigenvalues --    0.80833   0.81305   0.82183   0.82409   0.83724
 Alpha virt. eigenvalues --    0.84102   0.84808   0.85082   0.85745   0.86575
 Alpha virt. eigenvalues --    0.87026   0.87728   0.88501   0.88679   0.89354
 Alpha virt. eigenvalues --    0.90188   0.90376   0.91472   0.91540   0.91990
 Alpha virt. eigenvalues --    0.92497   0.92798   0.93875   0.94886   0.95739
 Alpha virt. eigenvalues --    0.96144   0.96979   0.97824   0.98544   0.98714
 Alpha virt. eigenvalues --    0.99944   1.00229   1.00470   1.01085   1.02281
 Alpha virt. eigenvalues --    1.03184   1.03880   1.05066   1.05491   1.05950
 Alpha virt. eigenvalues --    1.08364   1.08566   1.09730   1.10702   1.11662
 Alpha virt. eigenvalues --    1.12720   1.14078   1.14679   1.15215   1.16930
 Alpha virt. eigenvalues --    1.16990   1.17685   1.19311   1.20116   1.20640
 Alpha virt. eigenvalues --    1.21665   1.22893   1.24757   1.25962   1.26311
 Alpha virt. eigenvalues --    1.27234   1.27497   1.28450   1.29311   1.29459
 Alpha virt. eigenvalues --    1.30342   1.31579   1.32123   1.33056   1.33458
 Alpha virt. eigenvalues --    1.34510   1.34870   1.35248   1.35818   1.36579
 Alpha virt. eigenvalues --    1.37291   1.38043   1.38959   1.39660   1.40330
 Alpha virt. eigenvalues --    1.40593   1.41100   1.41854   1.42062   1.42905
 Alpha virt. eigenvalues --    1.43320   1.43834   1.44266   1.44615   1.45155
 Alpha virt. eigenvalues --    1.45892   1.46024   1.46669   1.46977   1.47591
 Alpha virt. eigenvalues --    1.48034   1.48290   1.48631   1.49857   1.50308
 Alpha virt. eigenvalues --    1.51183   1.51310   1.52402   1.52732   1.52930
 Alpha virt. eigenvalues --    1.53833   1.54186   1.54615   1.55731   1.56203
 Alpha virt. eigenvalues --    1.57572   1.58209   1.58483   1.59517   1.60434
 Alpha virt. eigenvalues --    1.60523   1.61768   1.62177   1.62505   1.62705
 Alpha virt. eigenvalues --    1.63427   1.63705   1.65076   1.65363   1.66083
 Alpha virt. eigenvalues --    1.66735   1.66861   1.67302   1.67763   1.68439
 Alpha virt. eigenvalues --    1.68590   1.68801   1.69267   1.69877   1.70237
 Alpha virt. eigenvalues --    1.70963   1.71106   1.71513   1.72010   1.72551
 Alpha virt. eigenvalues --    1.72593   1.73468   1.73726   1.73837   1.74789
 Alpha virt. eigenvalues --    1.75361   1.75887   1.76107   1.76470   1.76650
 Alpha virt. eigenvalues --    1.77157   1.77389   1.77682   1.78168   1.78943
 Alpha virt. eigenvalues --    1.79622   1.79863   1.80751   1.81141   1.81570
 Alpha virt. eigenvalues --    1.82025   1.82355   1.82966   1.83657   1.84531
 Alpha virt. eigenvalues --    1.84888   1.85189   1.86447   1.86741   1.87164
 Alpha virt. eigenvalues --    1.87791   1.88307   1.88673   1.89518   1.89875
 Alpha virt. eigenvalues --    1.90503   1.91089   1.91383   1.92476   1.93247
 Alpha virt. eigenvalues --    1.93485   1.95108   1.95395   1.96288   1.97088
 Alpha virt. eigenvalues --    1.97670   1.98779   1.99148   1.99529   2.00050
 Alpha virt. eigenvalues --    2.01141   2.01848   2.02355   2.02970   2.03634
 Alpha virt. eigenvalues --    2.03994   2.04117   2.05639   2.05951   2.06830
 Alpha virt. eigenvalues --    2.07219   2.07775   2.08977   2.09013   2.09770
 Alpha virt. eigenvalues --    2.10399   2.10981   2.11493   2.12372   2.13453
 Alpha virt. eigenvalues --    2.14158   2.15212   2.16621   2.17908   2.18800
 Alpha virt. eigenvalues --    2.20182   2.20709   2.22090   2.22629   2.23317
 Alpha virt. eigenvalues --    2.24413   2.25180   2.25947   2.25964   2.26487
 Alpha virt. eigenvalues --    2.27261   2.27589   2.27793   2.28471   2.29898
 Alpha virt. eigenvalues --    2.30786   2.31787   2.33100   2.33538   2.36864
 Alpha virt. eigenvalues --    2.39273   2.40002   2.40587   2.40676   2.41449
 Alpha virt. eigenvalues --    2.41626   2.42221   2.42605   2.43080   2.43577
 Alpha virt. eigenvalues --    2.44793   2.45637   2.46240   2.46323   2.46894
 Alpha virt. eigenvalues --    2.47728   2.48927   2.49118   2.49615   2.50756
 Alpha virt. eigenvalues --    2.51553   2.51887   2.52101   2.52756   2.53600
 Alpha virt. eigenvalues --    2.53778   2.54403   2.55245   2.55882   2.56573
 Alpha virt. eigenvalues --    2.57408   2.57636   2.58120   2.58512   2.59387
 Alpha virt. eigenvalues --    2.61050   2.61277   2.62717   2.64203   2.65123
 Alpha virt. eigenvalues --    2.66806   2.67253   2.68408   2.68983   2.69588
 Alpha virt. eigenvalues --    2.70805   2.71188   2.73199   2.73672   2.74877
 Alpha virt. eigenvalues --    2.76645   2.78562   2.80225   2.82095   2.83056
 Alpha virt. eigenvalues --    2.84471   2.85941   2.87116   2.92534   2.93635
 Alpha virt. eigenvalues --    2.99319   3.02147   3.07015   3.07853   3.11957
 Alpha virt. eigenvalues --    3.13439   3.14979   3.18513   3.49241   3.60057
 Alpha virt. eigenvalues --    3.84989   3.89055  34.90422  34.97550  35.08345
 Alpha virt. eigenvalues --   46.03110
          Condensed to atoms (all electrons):
 Mulliken charges:
               1
     1  N   -0.316677
     2  C    0.055058
     3  C    0.093535
     4  C   -0.047860
     5  C    0.082830
     6  C   -0.042848
     7  C    0.112765
     8  H    0.006947
     9  H    0.020373
    10  H    0.007602
    11  C   -0.094897
    12  N   -0.373902
    13  H    0.036626
    14  H    0.097302
    15  H    0.148122
    16  P    0.247471
    17  H    0.052722
    18  Ru   0.049836
    19  C   -0.026430
    20  C   -0.476346
    21  C   -0.009131
    22  C   -0.465619
    23  C   -0.008456
    24  C   -0.006353
    25  C    0.010358
    26  C   -0.008049
    27  C    0.011573
    28  C   -0.008406
    29  C   -0.031320
    30  O   -0.149275
    31  H    0.127959
    32  C   -0.067523
    33  H    0.101988
    34  H    0.070248
    35  C   -0.109436
    36  H    0.024474
    37  O   -0.401811
    38  H    0.156120
    39  O   -0.425736
    40  H    0.190333
    41  H    0.148075
    42  H    0.038132
    43  H    0.041630
    44  H    0.056015
    45  H    0.039237
    46  H    0.050053
    47  H    0.021445
    48  H    0.067460
    49  H    0.127740
    50  H    0.043959
    51  H    0.077476
    52  H    0.043212
    53  H    0.040264
    54  H    0.028885
    55  H    0.046811
    56  H    0.052750
    57  H    0.040907
    58  H    0.042055
    59  H    0.036647
    60  H    0.093740
    61  H    0.037171
    62  H    0.039307
    63  H    0.106402
    64  H    0.046461
 Sum of Mulliken charges =  -0.00000
 Mulliken charges with hydrogens summed into heavy atoms:
               1
     1  N   -0.316677
     2  C    0.055058
     3  C    0.093535
     4  C   -0.040914
     5  C    0.103202
     6  C   -0.035246
     7  C    0.246693
    11  C    0.105947
    12  N   -0.373902
    16  P    0.247471
    18  Ru   0.049836
    19  C    0.203517
    20  C   -0.476346
    21  C    0.085591
    22  C   -0.465619
    23  C    0.208189
    24  C    0.158294
    25  C    0.126318
    26  C    0.184121
    27  C    0.147285
    28  C    0.159152
    29  C   -0.031320
    30  O   -0.149275
    32  C    0.077781
    35  C    0.118401
    37  O   -0.245691
    39  O   -0.235402
 Electronic spatial extent (au):  <R**2>=           9797.0531
 Charge=             -0.0000 electrons
 Dipole moment (field-independent basis, Debye):
    X=              0.7613    Y=              5.8978    Z=              0.6604  Tot=              5.9833
 Quadrupole moment (field-independent basis, Debye-Ang):
   XX=           -166.1603   YY=           -179.8951   ZZ=           -198.4900
   XY=             -5.6918   XZ=             -2.4006   YZ=             -2.1919
 Traceless Quadrupole moment (field-independent basis, Debye-Ang):
   XX=             15.3548   YY=              1.6201   ZZ=            -16.9749
   XY=             -5.6918   XZ=             -2.4006   YZ=             -2.1919
 Octapole moment (field-independent basis, Debye-Ang**2):
  XXX=            -50.1003  YYY=             30.5477  ZZZ=            -10.0266  XYY=            -16.3188
  XXY=             -6.8807  XXZ=              5.3313  XZZ=              1.0783  YZZ=            -10.3396
  YYZ=             -6.5143  XYZ=             -2.8248
 Hexadecapole moment (field-independent basis, Debye-Ang**3):
 XXXX=          -7298.5535 YYYY=          -3386.6789 ZZZZ=          -2394.7653 XXXY=            -30.7311
 XXXZ=             -0.4190 YYYX=            -88.9402 YYYZ=           -117.2536 ZZZX=             19.4094
 ZZZY=             42.4327 XXYY=          -1765.4795 XXZZ=          -1579.6687 YYZZ=           -994.5647
 XXYZ=             25.3602 YYXZ=            -19.4795 ZZXY=             25.0488
 N-N= 3.484652841054D+03 E-N=-1.058343258405D+04  KE= 1.485170861395D+03
   1 Symmetry operations used in ECPInt.
 ECPInt:  NShTT=   40186 NPrTT=  280000 LenC2=   37283 LenP2D=  141990.
 LDataN:  DoStor=T MaxTD1= 7 Len=  274
 Number of processors reduced to  17 by ecpmxn.
 Calling FoFJK, ICntrl=      2127 FMM=T ISym2X=0 I1Cent= 0 IOpClX= 0 NMat=1 NMatS=1 NMatT=0.
 Defaulting to unpruned grid for atomic number  44.
 Defaulting to unpruned grid for atomic number  44.
 Defaulting to unpruned grid for atomic number  44.
 Defaulting to unpruned grid for atomic number  44.
 Defaulting to unpruned grid for atomic number  44.
 Defaulting to unpruned grid for atomic number  44.
 Defaulting to unpruned grid for atomic number  44.
 Defaulting to unpruned grid for atomic number  44.
 Defaulting to unpruned grid for atomic number  44.
 Defaulting to unpruned grid for atomic number  44.
 Defaulting to unpruned grid for atomic number  44.
 Defaulting to unpruned grid for atomic number  44.
 Defaulting to unpruned grid for atomic number  44.
 Defaulting to unpruned grid for atomic number  44.
 Defaulting to unpruned grid for atomic number  44.
 Defaulting to unpruned grid for atomic number  44.
 Defaulting to unpruned grid for atomic number  44.
 Defaulting to unpruned grid for atomic number  44.
 Defaulting to unpruned grid for atomic number  44.
 Defaulting to unpruned grid for atomic number  44.
 ***** Axes restored to original set *****
 -------------------------------------------------------------------
 Center     Atomic                   Forces (Hartrees/Bohr)
 Number     Number              X              Y              Z
 -------------------------------------------------------------------
      1        7          -0.000170049   -0.000461410    0.000191505
      2        6          -0.000339330   -0.000493495    0.000194238
      3        6           0.000430555    0.000024288   -0.000236747
      4        6           0.000091286   -0.000585883    0.000005889
      5        6          -0.000013938   -0.000095498   -0.000000340
      6        6           0.000209196   -0.000607696    0.000206388
      7        6           0.000324603   -0.000178028   -0.000274786
      8        1           0.000103797   -0.000210762   -0.000027894
      9        1           0.000025740   -0.000159029    0.000015992
     10        1          -0.000027778   -0.000207057    0.000085434
     11        6           0.000142686   -0.000602198    0.000251094
     12        7           0.000465309    0.000013350   -0.000162485
     13        1           0.000189018   -0.000186522   -0.000209576
     14        1           0.000336059   -0.000114512   -0.000302918
     15        1           0.000243279   -0.000016577    0.000456713
     16       15          -0.000476843   -0.000289246   -0.000433349
     17        1           0.000094788   -0.000268142    0.000271946
     18       44           0.000166039    0.000101760    0.000542048
     19        6           0.000476521    0.000102455    0.000391216
     20        6          -0.000447224    0.000261230    0.000535899
     21        6           0.000410042    0.000333042   -0.000241148
     22        6          -0.000015252   -0.000246371   -0.000088725
     23        6          -0.000068215    0.000372980    0.000522779
     24        6          -0.000601612    0.000570147    0.000008557
     25        6          -0.000349291   -0.000039499    0.000255950
     26        6          -0.000300431   -0.000312186   -0.000628273
     27        6          -0.000485859   -0.000300984   -0.000319785
     28        6          -0.000358599    0.000180113   -0.000576563
     29        6           0.000326515    0.000257813   -0.001032948
     30        8           0.000075736    0.000237897   -0.000630238
     31        1           0.000172679    0.000029779    0.000218288
     32        6           0.000467686   -0.000045579    0.000221273
     33        1           0.000190507    0.000104098    0.000289758
     34        1           0.000039553    0.000049286   -0.000174076
     35        6           0.000298939    0.000487584   -0.000131061
     36        1           0.000193044    0.000087721   -0.000120326
     37        8          -0.000087714    0.000659644    0.000163872
     38        1           0.000091881    0.000449350   -0.000022947
     39        8          -0.000006989   -0.000058952    0.000298871
     40        1          -0.000055639    0.000245592    0.000410878
     41        1          -0.000023743    0.000263426    0.000047735
     42        1           0.000120969    0.000178541   -0.000015948
     43        1           0.000102147    0.000185754   -0.000064528
     44        1           0.000159210   -0.000026039    0.000149509
     45        1           0.000201635   -0.000024408    0.000063016
     46        1           0.000230532    0.000001954    0.000127736
     47        1          -0.000044678    0.000123264    0.000235603
     48        1          -0.000049556   -0.000053153    0.000170168
     49        1           0.000073225    0.000221452    0.000104293
     50        1          -0.000186770    0.000220970    0.000042420
     51        1          -0.000173144    0.000323832   -0.000009058
     52        1          -0.000167891    0.000265294    0.000012509
     53        1          -0.000160420   -0.000008711    0.000172485
     54        1          -0.000167556   -0.000004560    0.000119524
     55        1          -0.000255201    0.000102150    0.000238531
     56        1          -0.000290663   -0.000119395   -0.000035600
     57        1          -0.000217184   -0.000137412   -0.000112394
     58        1          -0.000427044   -0.000349735    0.000012279
     59        1          -0.000097434    0.000142249   -0.000199156
     60        1          -0.000057509    0.000103534   -0.000379320
     61        1          -0.000135608    0.000055977   -0.000192142
     62        1          -0.000066160   -0.000135328   -0.000234640
     63        1           0.000023864   -0.000097948    0.000002542
     64        1          -0.000151717   -0.000320211   -0.000179964
 -------------------------------------------------------------------
 Cartesian Forces:  Max     0.001032948 RMS     0.000271902

 GradGradGradGradGradGradGradGradGradGradGradGradGradGradGradGradGradGrad
 Berny optimization.
 FormGI is forming the generalized inverse of G from B-inverse, IUseBI=4.
 Internal  Forces:  Max     0.008247358 RMS     0.001059491
 Search for a local minimum.
 Step number   1 out of a maximum of  381
 All quantities printed in internal units (Hartrees-Bohrs-Radians)
 Mixed Optimization -- RFO/linear search
 Second derivative matrix not updated -- first step.
 ITU=  0
     Eigenvalues ---    0.00230   0.00230   0.00230   0.00230   0.00308
     Eigenvalues ---    0.00321   0.00344   0.00345   0.00348   0.00348
     Eigenvalues ---    0.00428   0.00468   0.00565   0.00608   0.00618
     Eigenvalues ---    0.00689   0.00754   0.00842   0.01230   0.01355
     Eigenvalues ---    0.01654   0.01784   0.02178   0.02195   0.02197
     Eigenvalues ---    0.02208   0.02293   0.02556   0.02726   0.02828
     Eigenvalues ---    0.03664   0.03999   0.04045   0.04190   0.04210
     Eigenvalues ---    0.04556   0.04755   0.04755   0.04936   0.04942
     Eigenvalues ---    0.04966   0.05125   0.05167   0.05185   0.05191
     Eigenvalues ---    0.05200   0.05201   0.05239   0.05270   0.05323
     Eigenvalues ---    0.05429   0.05512   0.05622   0.05700   0.05703
     Eigenvalues ---    0.05707   0.05756   0.05761   0.05774   0.05788
     Eigenvalues ---    0.05874   0.05953   0.06573   0.06997   0.07585
     Eigenvalues ---    0.08476   0.08789   0.09274   0.09636   0.09927
     Eigenvalues ---    0.10189   0.11418   0.12982   0.13117   0.13269
     Eigenvalues ---    0.13297   0.14139   0.14254   0.14385   0.14548
     Eigenvalues ---    0.14652   0.15387   0.15457   0.15517   0.15994
     Eigenvalues ---    0.15997   0.16000   0.16000   0.16000   0.16000
     Eigenvalues ---    0.16000   0.16000   0.16000   0.16000   0.16000
     Eigenvalues ---    0.16000   0.16000   0.16000   0.16000   0.16000
     Eigenvalues ---    0.16000   0.16000   0.16000   0.16000   0.16000
     Eigenvalues ---    0.16000   0.16000   0.16000   0.16000   0.16000
     Eigenvalues ---    0.16000   0.16000   0.16000   0.16104   0.16438
[...]
 0000259,0.00001804,0.00000717,-0.00000471,-0.00000370,-0.00000747,0.00
 000402,0.00362710,-0.00256920,0.00014246,0.00006039,0.00008436,-0.0001
 9839,-0.00013643,-0.00009032,-0.00008440,-0.00002376,0.00000222,0.0000
 4387,-0.00152252,0.00010393,-0.00075491,-0.00000852,0.00004166,-0.0000
 1943,-0.00803572,-0.01037192,-0.02104690,0.00062995,-0.00029062,-0.000
 25814,-0.00018667,0.00021760,-0.00002896,-0.00005088,-0.00019851,0.000
 02041,-0.03122390,-0.05974620,-0.05904918,-0.00120587,0.00023541,0.000
 60383,-0.00135785,0.00075815,-0.00190467,0.00009763,0.00025476,-0.0008
 8977,0.00007531,-0.00005347,0.00063819,0.00001019,-0.00001042,-0.00001
 319,0.00000127,-0.00000200,-0.00001586,0.00000698,0.00000584,-0.000000
 12,0.00000900,-0.00000032,0.00000317,-0.00000137,0.00000343,-0.0000005
 0,-0.00002081,-0.00000891,0.00001153,-0.00003533,0.00000997,0.00006482
 ,0.00002249,0.,-0.00003289,-0.00007564,0.00010016,-0.00000218,0.000049
 48,0.00001517,0.00000144,0.00001835,0.00000635,-0.00000312,-0.00000088
 ,0.00000064,0.00000019,-0.00000382,-0.00000193,0.00000255,-0.00000598,
 0.00000140,-0.00000156,-0.00000740,0.00000424,0.00000314,-0.00000088,0
 .00000081,0.00000167,-0.00011174,-0.00013090,-0.00020415,0.00000673,0.
 00002025,-0.00000528,0.00002944,0.00002324,-0.00000114,0.00002949,-0.0
 0003416,0.00002787,-0.00003414,-0.00002951,0.00001475,0.00006997,0.000
 02861,0.00003845,0.00007365,0.00003733,-0.00005496,0.00004039,0.000045
 70,0.00000517,0.00000340,0.00001712,-0.00002039,-0.00011799,-0.0000502
 4,0.00027588,0.00032327,0.00055319,0.00021731,0.00006873,0.00000062,0.
 00014386,0.00001296,0.00041104,0.00027235,-0.00009445,-0.00009210,0.00
 001574,0.00069062,-0.00015212,0.00082164,0.03036304,0.06704809,0.00021
 138,0.00010382,-0.00007555,-0.00004671,0.00012883,0.00000456,0.0001656
 9,-0.00017893,-0.00017475,-0.00009486,-0.00009291,0.00007920,0.0001645
 3,-0.00002312,-0.00006218,-0.00019261,0.00000712,0.00000040,0.00000485
 ,-0.00001405,-0.00002706,-0.00001238,-0.00000606,-0.00000411,-0.000016
 51,0.00001555,-0.00000602,0.00000520,-0.00001890,0.00000579,-0.0001373
 3,-0.00012196,0.00020694,-0.00016161,-0.00001439,0.00001700,-0.0000150
 4,0.00000949,0.00000344,-0.00000437,-0.00002530,0.00000070,0.00000714,
 0.00001313,0.00002606,0.00288464,-0.00058363,0.00012959,-0.00003968,0.
 00002412,0.00010687,0.00020575,0.00026666,0.00030938,0.00000548,0.0000
 0314,0.00004108,-0.00138107,0.00002625,-0.00020600,0.00001351,0.000047
 93,-0.00004234,-0.00538991,-0.00592269,-0.01441224,0.00053326,-0.00021
 997,-0.00020304,-0.00009387,0.00009768,-0.00006184,-0.00008286,-0.0001
 3394,0.00001752,-0.10243985,-0.05973456,-0.24234633,-0.00138368,0.0002
 3185,0.00014704,-0.00050385,0.00200466,0.00100036,-0.00001006,0.000026
 12,-0.00066543,0.00000699,-0.00006498,0.00045055,0.00001023,-0.0000037
 6,0.00000235,-0.00000247,0.00000146,-0.00001029,0.00000835,-0.00000261
 ,0.00000105,0.00001025,-0.00000451,-0.00000104,0.00000060,-0.00000601,
 0.00000742,-0.00002237,-0.00000648,0.00001036,-0.00004949,-0.00007695,
 0.00000937,0.00000731,0.00001918,-0.00002228,-0.00010452,-0.00005289,0
 .00007353,0.00002180,0.00000401,0.00000401,0.00002150,0.00001587,-0.00
 001430,-0.00000145,0.00000108,-0.00000326,-0.00000413,-0.00000768,0.00
 000468,-0.00000527,0.00000079,-0.00000529,0.00000174,0.00000276,0.0000
 0215,-0.00000528,-0.00000399,0.00000431,-0.00006862,-0.00011753,-0.000
 15069,0.00000491,0.00002090,0.00002104,0.00002064,0.00002785,0.0000070
 0,0.00005473,-0.00005370,0.00002481,-0.00001185,-0.00001308,0.00001270
 ,0.00007340,0.00001263,0.00005604,0.00006252,0.00000857,-0.00003136,0.
 00004843,0.00005147,-0.00000832,0.00000389,0.00001682,0.00002133,0.000
 09158,0.00023819,0.00052425,0.00106184,0.00021119,0.00023574,-0.000074
 43,-0.00006908,0.00000077,0.00021496,0.00034619,0.00027627,0.00002196,
 0.00001694,-0.00003635,0.00015668,-0.00047100,0.00080362,0.10990311,0.
 06754196,0.26224638,-0.00079156,-0.00010790,-0.00094487,0.00005149,-0.
 00002070,-0.00022473,-0.00004954,0.00001313,0.00009907,0.00000297,0.00
 006282,0.00005159,-0.00000703,-0.00002461,0.00000372,0.00004657,-0.000
 05249,0.00002763,0.00000192,-0.00002668,-0.00005539,0.00000513,0.00000
 827,0.00001156,0.00000018,-0.00000373,0.00000313,-0.00001115,0.0000076
 8,0.00000064,0.00009769,0.00003446,0.00014614,0.00005649,-0.00000505,0
 .00000640,0.00002273,-0.00000083,0.00003589,-0.00002171,-0.00003194,0.
 00004515,0.00001356,-0.00005518,-0.00001191,-0.00080586,-0.00023267,0.
 00020329,-0.00002688,0.00004931,-0.00003661,-0.00081765,-0.00049464,-0
 .00062763,0.00000702,0.00001759,-0.00000897,0.00001624,0.00019558,0.00
 006274,0.00000467,-0.00000199,0.00001595,-0.01366646,-0.00655113,0.002
 15572,0.00000167,0.00001897,-0.00000969,-0.00004029,-0.00003385,-0.000
 07776,-0.00002156,-0.00012671,-0.00007811,-0.28568684,-0.08155531,0.05
 287644,-0.00148681,0.00397133,0.00136707,0.00047296,-0.00094939,0.0001
 0273,-0.00038308,-0.00125125,0.00055872,-0.00054384,-0.00077981,-0.000
 26037,-0.00000659,0.00000127,0.00000740,-0.00000042,-0.00000174,0.0000
 0535,-0.00000285,0.00000037,0.00000076,0.00000833,-0.00000633,-0.00000
 346,-0.00000498,0.00000878,-0.00000764,0.,0.00000089,-0.00000217,0.000
 01301,-0.00001550,-0.00001714,0.00000210,-0.00003703,0.00001999,0.0001
 3596,0.00004646,-0.00014230,-0.00003492,-0.00002547,0.00001476,-0.0000
 0252,-0.00000596,0.00002301,0.00000166,-0.00000060,-0.00000388,-0.0000
 0100,0.00000309,0.00000148,0.00000185,0.00000008,-0.00000065,-0.000001
 67,0.00000373,0.00000070,0.00000049,0.00000096,-0.00000103,0.00000717,
 0.00000119,-0.00000453,-0.00001131,0.00000223,0.00000899,0.00000881,0.
 00000780,0.00000071,0.00001969,0.00000670,0.00000749,0.00002211,0.0000
 2655,0.00001763,0.00004138,-0.00004659,0.00003152,0.00003469,0.0000342
 1,0.00000448,0.00006041,0.00002907,-0.00004053,0.00001225,0.00001230,0
 .00002179,-0.00092673,-0.00060192,0.00043455,0.00045423,0.00014118,0.0
 0004089,0.00011530,-0.00013292,0.00003307,0.00026998,0.00006688,0.0000
 1636,0.00005812,0.00057817,-0.00021440,-0.00013423,0.00003238,0.000026
 99,-0.01042179,-0.00340117,0.00367370,0.31031237,-0.00019310,0.0003735
 0,-0.00068073,0.00044796,-0.00013286,-0.00003327,-0.00050299,-0.000225
 44,0.00035549,0.00003829,0.00000154,-0.00000538,0.00001970,-0.00014782
 ,0.00001442,-0.00002602,-0.00008409,0.00001064,0.00003102,0.00010109,0
 .00006806,0.00002041,0.00000043,0.00001654,-0.00000240,-0.00000287,0.0
 0000428,-0.00000735,0.00002383,-0.00004805,-0.00026280,-0.00014625,0.0
 0004953,0.00001030,-0.00002513,-0.00002388,0.00001131,-0.00003661,-0.0
 0000435,0.00001610,0.00006553,-0.00002465,0.00008917,0.00010013,-0.000
 03517,0.00087521,0.00075615,-0.00076961,0.00009971,-0.00003207,-0.0000
 2001,-0.00005544,0.00026203,0.00077668,0.00001711,-0.00003048,-0.00004
 083,0.00001154,-0.00013424,0.00008890,-0.00000388,-0.00002694,-0.00002
 564,0.02131781,0.00860092,-0.00324711,-0.00004793,-0.00001925,0.000022
 41,0.00003441,-0.00001015,0.00004678,-0.00000790,0.00011704,0.00005633
 ,-0.08388203,-0.07461871,0.01923082,0.00246749,-0.00356199,-0.00207228
 ,-0.00000879,0.00156649,-0.00024475,-0.00170385,-0.00163745,-0.0019495
 2,-0.00027157,-0.00055306,0.00145126,-0.00002012,0.00001585,0.00001542
 ,-0.00000152,0.00000744,0.00000850,-0.00001460,-0.00000921,-0.00001412
 ,-0.00003207,-0.00000574,0.00000755,0.00000420,-0.00001351,0.00001248,
 0.00003339,0.00000504,-0.00000263,0.00003872,0.00008397,0.00003407,0.0
 0002249,-0.00000528,-0.00005846,-0.00008764,-0.00021138,0.00038504,0.0
 0002212,-0.00000670,-0.00002933,-0.00003255,-0.00002216,0.00000485,0.0
 0000322,0.00000019,0.00000590,0.00000346,-0.00000105,-0.00000588,0.000
 00327,-0.00000178,0.00000254,0.00001365,-0.00001207,-0.00000366,0.0000
 0270,-0.00000071,-0.00000112,-0.00001394,0.00002117,0.00001612,0.00001
 456,-0.00000106,-0.00001913,0.00000906,-0.00001414,0.00000451,-0.00001
 346,0.00000369,-0.00000125,-0.00001721,-0.00001824,-0.00001085,-0.0000
 1241,0.00005204,-0.00001461,-0.00003432,-0.00002018,0.00001990,-0.0000
 2517,-0.00002784,0.00005358,-0.00001362,-0.00001635,-0.00001693,0.0015
 6396,0.00066226,-0.00057702,-0.00003183,-0.00022419,0.00013047,0.00007
 179,0.00009576,-0.00029641,-0.00024431,0.00006534,-0.00010826,-0.00009
 524,-0.00037568,0.00015886,-0.00004675,-0.00006966,-0.00000145,-0.0058
 1875,-0.00324632,0.00212576,0.08899208,0.07981702,-0.00027816,-0.00009
 508,-0.00034973,-0.00075913,0.00019883,0.00010605,0.00062055,0.0004008
 0,-0.00061142,-0.00001461,-0.00014764,-0.00001117,0.00009877,-0.000011
 17,-0.00005367,-0.00009297,0.00012251,0.00001035,-0.00004846,-0.000049
 00,0.00002810,0.00002149,-0.00002806,0.00000699,0.00001001,-0.00000719
 ,0.00001364,-0.00000164,-0.00005872,0.00004814,-0.00003223,0.00006276,
 -0.00020437,0.00001320,0.00000419,-0.00003184,0.00004825,0.00001452,0.
 00000289,0.00000012,0.00003403,0.00001435,-0.00013874,-0.00000661,-0.0
 0002413,0.00189699,0.00021716,-0.00084156,-0.00007755,-0.00014748,0.00
 017718,0.00033983,0.00064864,-0.00047425,-0.00002441,0.00000174,-0.000
 02852,-0.00005685,-0.00014959,0.00001222,-0.00002461,-0.00003902,0.000
 07534,0.01206059,0.00555074,-0.00466186,-0.00004639,-0.00000130,0.0000
 0398,0.00003404,0.00001385,0.00010018,0.00000279,0.00013631,0.00008001
 ,0.05121538,0.01805572,-0.05427970,0.00125731,-0.00302465,-0.00121171,
 -0.00071180,0.00028217,0.00003524,-0.00029744,-0.00068177,0.00311345,-
 0.00000416,0.00002929,-0.00187163,-0.00000896,0.00000410,-0.00001035,0
 .00000409,-0.00000343,0.00000857,0.00001046,0.00000034,-0.00000211,-0.
 00001379,0.00000795,0.00000166,0.00000443,0.00000942,-0.00000590,0.000
 01939,0.00000295,-0.00000723,-0.00002839,0.00031000,0.00008234,0.00000
 386,-0.00004610,0.00002250,-0.00004659,-0.00006459,0.00028807,-0.00001
 004,-0.00003771,-0.00006616,-0.00004520,-0.00001634,0.00004112,0.00001
 199,-0.00000149,0.00000009,0.00000924,0.00001330,-0.00000303,0.0000065
 1,-0.00000016,0.00000675,-0.00000620,0.00000167,-0.00000051,0.00000950
 ,0.00000558,-0.00000450,-0.00001620,0.00001972,0.00001975,0.00001705,-
 0.00000217,-0.00001983,0.00002771,-0.00001541,-0.00002680,-0.00003098,
 0.00001520,-0.00002365,0.00001731,-0.00001089,0.00000067,-0.00005926,0
 .00003171,-0.00002532,-0.00004810,-0.00002820,0.00001781,-0.00004286,-
 0.00001922,0.00004273,-0.00000772,-0.00000299,-0.00001925,0.00121907,0
 .00029535,0.00032823,0.00016528,0.00016642,0.00027373,-0.00034846,-0.0
 0013209,0.00020415,0.00001518,-0.00007221,-0.00015559,-0.00000163,-0.0
 0001676,0.00043420,-0.00013832,-0.00013452,-0.00000906,-0.02513362,-0.
 00855346,0.00607123,-0.05764919,-0.01783570,0.05741107,-0.00032127,-0.
 00041083,0.00029408,-0.00012754,-0.00011137,0.00009967,0.00000154,-0.0
 0030435,-0.00112596,0.00001393,0.00012408,-0.00003304,-0.00024137,0.00
 012765,0.00013976,0.00004285,0.00035428,-0.00027276,-0.00003196,-0.000
 08041,-0.00001892,0.00000865,-0.00000017,-0.00000826,0.00000809,-0.000
 00916,-0.00001396,0.00001710,-0.00002452,0.00001072,0.00038539,0.00001
 974,-0.00031234,-0.00000217,0.00003402,-0.00001620,0.00000075,0.000025
 34,-0.00000597,0.00004897,0.00001505,0.00000120,-0.00018109,-0.0000600
 7,0.00000856,0.00010532,-0.00024418,-0.00008704,-0.00008236,-0.0001038
 4,0.00026193,-0.00002425,-0.00028585,-0.00049490,-0.00002380,0.0000020
 4,0.00001785,-0.00006563,0.00003936,-0.00005602,-0.00000596,0.00000663
 ,0.00004622,-0.00211795,0.01211558,-0.01118740,0.00001325,-0.00003855,
 0.00001444,-0.00000035,0.00000108,0.00004639,0.00005477,0.00001980,0.0
 0002926,-0.04550520,0.01055452,-0.00629591,0.00102189,0.00065890,-0.00
 122665,-0.00226819,0.00287444,0.00193423,0.00010785,0.00003558,0.00124
 638,-0.00009242,-0.00011438,-0.00088762,0.00001481,-0.00000747,-0.0000
 1935,0.00000299,-0.00000530,-0.00000693,0.00001117,0.00001259,0.000000
 27,0.00000835,-0.00000106,-0.00000317,-0.00000007,0.00001033,-0.000010
 24,-0.00000705,-0.00000262,-0.00000163,-0.00001084,0.00007685,0.000028
 88,-0.00001428,-0.00000473,0.00001472,0.00001947,0.00011565,-0.0001482
 8,0.00000310,0.00002369,-0.00000199,0.00000033,-0.00000380,0.00000598,
 -0.00000083,-0.00000168,-0.00000088,0.00000113,0.00000724,0.00000054,-
 0.00000163,0.00000108,0.00000157,-0.00001005,0.00000475,0.00000241,0.0
 0000348,0.00000445,-0.00000082,-0.00000535,-0.00000167,-0.00000392,0.0
 0000911,0.00000059,0.00000620,-0.00001194,-0.00000268,-0.00001396,-0.0
 0000334,-0.00000140,0.00001941,-0.00003503,-0.00004379,-0.00001568,0.0
 0003590,0.00002240,-0.00005027,-0.00001374,-0.00001402,-0.00001186,-0.
 00004021,0.00000116,0.00000702,-0.00000013,-0.00000692,0.00000215,0.00
 025460,-0.00026998,-0.00001137,-0.00011561,0.00003659,-0.00015589,-0.0
 0022438,-0.00012314,0.00059538,0.00024839,0.00119573,-0.00063370,0.000
 06206,0.00019970,-0.00005199,0.00006076,-0.00016517,0.00040400,-0.0013
 7943,0.01142665,-0.00732641,0.00352805,-0.02277462,0.01708430,0.046871
 37,-0.00014977,-0.00050085,0.00042866,-0.00012466,-0.00019586,0.000058
 07,-0.00024447,0.00086065,-0.00019243,0.00019169,0.00013751,-0.0002302
 9,-0.00037185,0.00012455,0.00015294,0.00049314,-0.00011076,0.00035773,
 -0.00001320,-0.00008630,-0.00000459,0.00000646,0.00000357,0.00000221,0
 .00001548,-0.00001750,0.00000509,-0.00002540,0.00000203,0.00000338,-0.
 00003403,0.00008918,0.00000252,-0.00003960,0.00000855,0.00000798,0.000
 00297,0.00002620,-0.00000352,0.00002257,0.00000988,0.00000001,0.000062
 29,0.00002891,0.00000835,0.00080653,-0.00158997,0.00168067,0.00015480,
 0.00021674,-0.00040582,-0.00021857,0.00006990,-0.00063370,-0.00001499,
 -0.00000306,0.00002567,-0.00004311,0.00004624,-0.00019725,-0.00002081,
 0.00000111,0.00003917,-0.00087424,-0.01667425,0.01403248,0.00003262,0.
 00003134,-0.00003239,0.00001392,0.00008671,0.00007155,-0.00002928,-0.0
 0001698,0.00000635,0.01104475,-0.22426761,0.12842643,-0.00155538,0.000
 79064,0.00050127,0.00334170,-0.00298985,-0.00382099,0.00030111,-0.0000
 9478,0.00101130,-0.00015174,0.00007432,-0.00071845,0.00000455,-0.00001
 039,-0.00002060,0.00000355,-0.00000552,-0.00001055,0.00000449,0.000007
 97,0.00000208,0.00000844,-0.00000355,-0.00000468,0.00000233,0.00000823
 ,-0.00000671,-0.00000951,-0.00000272,0.00000196,-0.00004547,0.00016571
 ,0.00003392,0.00002822,0.00001240,0.00002182,0.00003502,0.00017130,-0.
 00017717,0.00003130,0.00002611,-0.00000294,0.00000647,-0.00000278,0.00
 000528,-0.00000298,-0.00000096,-0.00000139,0.00000422,0.00000812,-0.00
 000195,-0.00000338,0.00000123,0.00000084,-0.00001065,0.00000415,0.0000
 0363,0.00000566,0.00000505,-0.00000089,-0.00001357,0.00000488,-0.00000
 488,-0.00001418,-0.00000869,-0.00003498,0.00001110,0.00000701,0.000003
 13,-0.00003332,0.00002239,-0.00007238,0.00005457,0.00007227,0.00003694
 ,-0.00012652,-0.00003496,0.00003067,-0.00000136,0.00002374,-0.00000304
 ,0.00001963,-0.00001394,0.00001224,0.00000597,0.00001375,-0.00005994,-
 0.00021898,0.00018405,-0.00027162,0.00009429,-0.00002266,-0.00005220,0
 .00069232,0.00049536,-0.00041002,0.00031614,-0.00105689,0.00137617,-0.
 00003513,0.00031440,-0.00012334,-0.00003039,0.00028382,-0.00004763,-0.
 00063762,0.00697033,-0.00562537,0.00220559,-0.00706981,0.00478377,-0.0
 1492977,0.24337028,-0.00009692,0.00009299,-0.00036315,0.00017447,0.000
 00176,0.00003033,-0.00143309,-0.00007198,-0.00112452,0.00003305,0.0000
 6733,0.00000556,0.00006252,-0.00007296,0.00002404,-0.00033269,0.000046
 93,-0.00051355,-0.00000297,0.00002125,-0.00002723,0.00001463,0.0000016
 0,0.00000272,0.00002166,-0.00002074,0.00000062,0.00000370,0.00004270,0
 .00001283,-0.00029527,-0.00052667,-0.00098208,0.00003514,-0.00000559,0
 .00000878,0.00001328,-0.00000613,0.00000088,-0.00000418,0.00002199,-0.
 00000177,0.00001292,-0.00010569,-0.00007212,-0.00020813,-0.00059814,0.
 00051477,0.00016165,0.00006377,-0.00042887,0.00003642,-0.00003068,0.00
 007504,0.00000008,0.00000104,-0.00002280,0.00020174,0.00005400,0.00003
 127,-0.00001261,-0.00001213,-0.00000112,0.00046472,-0.01210669,0.00807
 654,-0.00007706,0.00003241,0.00001966,-0.00002082,0.00000504,0.0000352
 8,0.00000528,0.00002081,-0.00000095,-0.00662814,0.13078912,-0.13787048
 ,-0.00042187,-0.00038590,0.00071797,0.00117902,-0.00177693,-0.00080270
 ,-0.00004053,0.00003664,-0.00045064,0.00006446,0.00003764,0.00033796,-
 0.00000658,0.00000593,0.00000503,0.00000143,0.00000151,0.00000646,-0.0
 0000382,-0.00000315,-0.00000092,-0.00000596,0.00000013,0.00000440,0.00
 000185,-0.00000090,0.00000045,0.00001071,0.00000039,-0.00000134,0.0000
 1085,0.00001861,-0.00000306,0.00000002,-0.00000810,0.00000020,0.000040
 33,0.00000803,0.00009894,0.00000082,-0.00000871,-0.00001248,-0.0000145
 1,-0.00000372,-0.00000065,0.00000272,0.00000058,0.00000355,0.00000044,
 0.00000088,-0.00000172,0.00000300,-0.00000025,0.00000304,0.00000193,-0
 .00000242,-0.00000278,0.00000103,0.00000044,-0.00000187,0.00000447,0.0
 0002396,0.00003105,0.00000317,-0.00001155,-0.00000363,-0.00000059,-0.0
 0000373,-0.00000175,-0.00001245,0.00001179,0.00000316,0.00000166,0.000
 00105,0.00000460,-0.00000776,0.00000822,0.00001764,-0.00001309,0.00000
 725,0.00000617,-0.00000260,-0.00000084,0.00000053,0.00000501,0.0000019
 3,-0.00000865,-0.00021162,-0.00017129,0.00001261,-0.00003942,0.0002061
 2,-0.00020562,-0.00009598,0.00020109,0.00008410,0.00036330,-0.00051376
 ,0.00086969,-0.00000487,-0.00007148,-0.00016706,0.00038016,-0.00004373
 ,0.00038985,0.00023031,0.02164713,-0.01439679,-0.00174222,0.00304432,-
 0.00404792,0.00818779,-0.13996254,0.15008252\\-0.00000728,0.00000123,0
 .00001809,0.00001470,-0.00000150,-0.00000545,-0.00000043,0.00000723,0.
 00000136,-0.00000116,0.00000526,-0.00000142,-0.00000920,-0.00000341,0.
 00000501,0.00000693,-0.00000706,-0.00000375,0.00000408,-0.00001046,0.0
 0000038,-0.00000081,-0.00000107,0.00000100,0.00000002,0.00000011,-0.00
 000059,-0.00000176,0.00000146,-0.00000007,-0.00000486,0.00000073,-0.00
 000068,0.00001017,0.00000299,0.00000001,0.00000107,0.00000104,-0.00000
 012,-0.00000106,0.00000071,0.00000459,-0.00000057,0.00000041,-0.000003
 60,-0.00000039,-0.00000864,0.00001925,-0.00000126,0.00000092,-0.000003
 71,-0.00002951,-0.00000909,-0.00003710,0.00000235,-0.00000297,0.000004
 29,-0.00000130,0.00000930,0.00000431,0.00000203,-0.00000035,-0.0000044
 7,0.00000138,0.00000004,-0.00000767,-0.00000256,-0.00000586,-0.0000121
 1,-0.00000026,0.00000353,-0.00000137,0.00000431,-0.00000314,0.00000155
 ,0.00000089,-0.00000058,-0.00000220,0.00000023,-0.00000395,-0.00000343
 ,-0.00000098,0.00000077,-0.00000613,0.00001911,0.00001276,0.00002262,0
 .00001127,0.00000393,-0.00000959,0.00000411,0.00000045,0.00000364,-0.0
 0000159,0.00000072,0.00000530,0.00000281,-0.00000346,0.00000172,0.0000
 0118,-0.00000136,0.00000234,0.00000838,-0.00000229,-0.00000132,-0.0000
 0287,-0.00000087,0.00000219,-0.00000689,-0.00000233,-0.00000273,0.0000
 0221,-0.00000009,-0.00000008,-0.00001364,0.00000459,0.00001563,0.00000
 150,0.00000379,-0.00000090,0.00000385,0.00000518,-0.00000013,0.0000009
 0,-0.00000018,0.00000168,-0.00000235,0.00000163,0.00000439,0.00000081,
 -0.00000089,0.00000229,-0.00000117,-0.00000068,0.00000325,-0.00000029,
 -0.00000083,0.00000340,0.00000075,-0.00000118,-0.00000015,0.00000292,0
 .00000147,0.00000193,0.00000318,-0.00000599,0.00000714,-0.00000024,0.0
 0000063,-0.00000194,-0.00000038,0.00000042,-0.00000160,0.00000111,0.00
 000733,0.00000492,-0.00000153,-0.00000047,-0.00000147,-0.00000021,0.00
 000573,0.00000255,-0.00000165,-0.00000111,-0.00000133,0.00000080,-0.00
 000634,-0.00000720,0.00000067,0.00000116,-0.00000118,-0.00000072,-0.00
 000049,-0.00000467,0.00000302,-0.00000213,-0.00000672,-0.00001725,-0.0
 0000384,-0.00000235,0.00000093,0.00000144,-0.00000103,-0.00000037,0.00
 000227,-0.00000062,-0.00000243,0.00000127,-0.00000194,-0.00000067,0.00
 000213,-0.00000403\\\@


 WHEN HAVING A MEETING OF THE MINDS,
 MAKE SURE YOU HAVE THE EQUIPMENT FOR IT.
 Job cpu time:       0 days 21 hours 39 minutes 31.3 seconds.
 Elapsed time:       0 days  1 hours  5 minutes  3.7 seconds.
 File lengths (MBytes):  RWF=   2226 Int=      0 D2E=      0 Chk=     31 Scr=      1
 Normal termination of Gaussian 16 at Tue Oct  8 20:34:08 2019.
