 Entering Gaussian System, Link 0=g16
 Initial command:
 /cluster/chemistry/gaussian/g16/l1.exe "/scratch/js1212.534967/scratch/Gau-13120.inp" -scrdir="/scratch/js1212.534967/scratch/"
 Entering Link 1 = /cluster/chemistry/gaussian/g16/l1.exe PID=     13121.
  
 Copyright (c) 1988,1990,1992,1993,1995,1998,2003,2009,2016,
            Gaussian, Inc.  All Rights Reserved.
  
 This is part of the Gaussian(R) 16 program.  It is based on
 the Gaussian(R) 09 system (copyright 2009, Gaussian, Inc.),
 the Gaussian(R) 03 system (copyright 2003, Gaussian, Inc.),
 the Gaussian(R) 98 system (copyright 1998, Gaussian, Inc.),
 the Gaussian(R) 94 system (copyright 1995, Gaussian, Inc.),
 the Gaussian 92(TM) system (copyright 1992, Gaussian, Inc.),
 the Gaussian 90(TM) system (copyright 1990, Gaussian, Inc.),
 the Gaussian 88(TM) system (copyright 1988, Gaussian, Inc.),
 the Gaussian 86(TM) system (copyright 1986, Carnegie Mellon
 University), and the Gaussian 82(TM) system (copyright 1983,
 Carnegie Mellon University). Gaussian is a federally registered
 trademark of Gaussian, Inc.
  
 This software contains proprietary and confidential information,
 including trade secrets, belonging to Gaussian, Inc.
  
 This software is provided under written license and may be
 used, copied, transmitted, or stored only in accord with that
 written license.
  
 The following legend is applicable only to US Government
 contracts under FAR:
  
                    RESTRICTED RIGHTS LEGEND
  
 Use, reproduction and disclosure by the US Government is
 subject to restrictions as set forth in subparagraphs (a)
 and (c) of the Commercial Computer Software - Restricted
 Rights clause in FAR 52.227-19.
  
 Gaussian, Inc.
 340 Quinnipiac St., Bldg. 40, Wallingford CT 06492
  
  
 ---------------------------------------------------------------
 Warning -- This program may not be used in any manner that
 competes with the business of Gaussian, Inc. or will provide
 assistance to any competitor of Gaussian, Inc.  The licensee
 of this program is prohibited from giving any competitor of
 Gaussian, Inc. access to this program.  By using this program,
 the user acknowledges that Gaussian, Inc. is engaged in the
 business of creating and licensing software in the field of
 computational chemistry and represents and warrants to the
 licensee that it is not a competitor of Gaussian, Inc. and that
 it will not use this program in any manner prohibited above.
 ---------------------------------------------------------------
  

 Cite this work as:
 Gaussian 16, Revision A.03,
 M. J. Frisch, G. W. Trucks, H. B. Schlegel, G. E. Scuseria, 
 M. A. Robb, J. R. Cheeseman, G. Scalmani, V. Barone, 
 G. A. Petersson, H. Nakatsuji, X. Li, M. Caricato, A. V. Marenich, 
 J. Bloino, B. G. Janesko, R. Gomperts, B. Mennucci, H. P. Hratchian, 
 J. V. Ortiz, A. F. Izmaylov, J. L. Sonnenberg, D. Williams-Young, 
 F. Ding, F. Lipparini, F. Egidi, J. Goings, B. Peng, A. Petrone, 
 T. Henderson, D. Ranasinghe, V. G. Zakrzewski, J. Gao, N. Rega, 
 G. Zheng, W. Liang, M. Hada, M. Ehara, K. Toyota, R. Fukuda, 
 J. Hasegawa, M. Ishida, T. Nakajima, Y. Honda, O. Kitao, H. Nakai, 
 T. Vreven, K. Throssell, J. A. Montgomery, Jr., J. E. Peralta, 
 F. Ogliaro, M. J. Bearpark, J. J. Heyd, E. N. Brothers, K. N. Kudin, 
 V. N. Staroverov, T. A. Keith, R. Kobayashi, J. Normand, 
 K. Raghavachari, A. P. Rendell, J. C. Burant, S. S. Iyengar, 
 J. Tomasi, M. Cossi, J. M. Millam, M. Klene, C. Adamo, R. Cammi, 
 J. W. Ochterski, R. L. Martin, K. Morokuma, O. Farkas, 
 J. B. Foresman, and D. J. Fox, Gaussian, Inc., Wallingford CT, 2016.
 
 ******************************************
 Gaussian 16:  ES64L-G16RevA.03 25-Dec-2016
                11-Oct-2019 
 ******************************************
 %rwf=/scratch/js1212.534967/3-Full-GP-Disp-SMD.rwf
 %nosave
 %nprocshared=20
 Will use up to   20 processors via shared memory.
 %mem=3000MB
 %chk=/scratch/js1212.534967/3-Full-GPOF-Disp.chk
 ----------------------------------------------------------------------
 # genecp pbe1pbe EmpiricalDispersion=GD3BJ scrf=(SMD,solvent=water) ge
 om=allcheck
 ----------------------------------------------------------------------
 1/29=7,38=1,172=1/1;
 2/12=2,40=1/2;
 3/5=7,11=2,14=-4,16=1,17=8,25=1,30=1,70=32201,72=1,74=-13,124=41/1,2,3;
 4//1;
 5/5=2,38=5,53=1/2;
 6/7=2,8=2,9=2,10=2,28=1/1;
 99/5=1,9=1/99;
 Structure from the checkpoint file:  "/scratch/js1212.534967/3-Full-GPOF-Disp.chk"
 -------------------
 Title Card Required
 -------------------
 Charge =  0 Multiplicity = 1
 Redundant internal coordinates found in file.  (old form).
 N,0,-0.7103586598,1.4138658936,-0.0573020856
 C,0,-1.930414302,1.8808839061,0.2627802141
 C,0,0.1991761598,2.2047100174,-0.6601932211
 C,0,-2.2710535554,3.2103290961,0.0511196334
 C,0,-1.3202204587,4.0630669224,-0.5060472574
 C,0,-0.0796924817,3.5547038624,-0.8732391261
 C,0,-2.8446624985,0.8565594112,0.8630884121
 H,0,-3.2673211898,3.5660583163,0.3154492244
 H,0,-1.5552362623,5.1153966463,-0.6751335434
 H,0,0.6702711501,4.1907102343,-1.3446154101
 C,0,1.4580827211,1.5437445969,-1.1278315352
 N,0,-2.7248314753,-0.4458490487,0.1814321959
 H,0,-3.8846556812,1.2259674467,0.8714416006
 H,0,-2.5470506275,0.7015637772,1.9130332925
 H,0,1.2390991707,1.1564148959,-2.1381362981
 P,0,1.789237894,-0.0257467819,-0.1707292555
 H,0,2.3001250498,2.2485099419,-1.1763669325
 Ru,0,-0.4008336471,-0.6118992662,0.0859203786
 C,0,-3.2882435927,-0.3869486441,-1.185462885
 C,0,2.9655536656,-1.0088594062,-1.300071322
 C,0,-3.3856929928,-1.4714690845,1.0198863898
 C,0,2.7286197897,0.5866088635,1.3710430313
 C,0,2.1040257934,-1.7558235467,-2.3211614054
 C,0,3.7160943276,-2.0545096106,-0.4733835022
 C,0,3.9558465263,-0.1169121083,-2.0521085897
 C,0,1.8763302673,1.6863725748,2.0162749875
 C,0,4.0978332559,1.184893149,1.0448687546
 C,0,2.9003563251,-0.5493972678,2.3839629444
 C,0,-0.3900404705,-0.8278936931,1.9045038816
 O,0,-0.4507099457,-1.0140112306,3.0563170899
 H,0,-2.695068182,0.3507827229,-1.7410416515
 C,0,-4.7796656098,-0.1074636218,-1.2874231943
 H,0,-3.0428711736,-1.3439224308,-1.6613345837
 H,0,-2.8475773525,-1.4810112287,1.9789590929
 C,0,-3.359704283,-2.8567685277,0.4101332754
 H,0,-4.4232144703,-1.1506920996,1.2423924387
 O,0,-0.3318179868,-2.6287659702,-0.3196849311
 H,0,0.2155440134,-3.1006745459,0.3181695539
 O,0,-0.5462891117,-0.4188943149,-1.9592119628
 H,0,-0.5313752414,-1.3467462079,-2.2325756181
 H,0,-2.3312988541,-3.0938451462,0.0849005961
 H,0,-4.0459914365,-2.9491527496,-0.4452770553
 H,0,-3.6810597782,-3.586955902,1.1681868065
 H,0,-5.0613929724,-0.1012676984,-2.3511311979
 H,0,-5.0645274426,0.873954146,-0.8771682579
 H,0,-5.3939429165,-0.8743861281,-0.7915744073
 H,0,2.7717395287,-2.3696834446,-2.9496803066
 H,0,1.5447218402,-1.0650370296,-2.9653966517
 H,0,1.3708321762,-2.4012111034,-1.8127375179
 H,0,4.2430259214,-2.7342360432,-1.1630533202
 H,0,3.0252393568,-2.6657926475,0.1269200781
 H,0,4.4705099694,-1.6154855216,0.1937146198
 H,0,4.5867689974,-0.7582864109,-2.6903511286
 H,0,4.6244857204,0.452325546,-1.3944543167
 H,0,3.4403207913,0.5885367826,-2.7198807884
 H,0,4.8145343573,0.4305257004,0.6941248517
 H,0,4.5171189456,1.631196341,1.9621838509
 H,0,4.0389137635,1.9852403614,0.2917116893
 H,0,3.578053402,-1.3333473408,2.0261246386
 H,0,1.9441443161,-1.0155104394,2.6488784257
 H,0,3.3340104137,-0.1346887054,3.3094308291
 H,0,2.3487171007,1.9837788437,2.9667687399
 H,0,0.856101689,1.3470713286,2.238178495
 H,0,1.8128702529,2.5858736223,1.386279247
 Recover connectivity data from disk.
                           ----------------------------
                           !    Current Parameters    !
                           ! (Angstroms and Degrees)  !
 --------------------------                            --------------------------
 ! Name  Definition              Value                                          !
 --------------------------------------------------------------------------------
 ! R1    R(1,2)                  1.345                                          !
 ! R2    R(1,3)                  1.3477                                         !
 ! R3    R(1,18)                 2.0543                                         !
 ! R4    R(2,4)                  1.3886                                         !
 ! R5    R(2,7)                  1.4985                                         !
 ! R6    R(3,6)                  1.3949                                         !
 ! R7    R(3,11)                 1.4968                                         !
 ! R8    R(4,5)                  1.3934                                         !
 ! R9    R(4,8)                  1.0904                                         !
 ! R10   R(5,6)                  1.39                                           !
 ! R11   R(5,9)                  1.0914                                         !
 ! R12   R(6,10)                 1.0905                                         !
 ! R13   R(7,12)                 1.4749                                         !
 ! R14   R(7,13)                 1.1037                                         !
 ! R15   R(7,14)                 1.1023                                         !
 ! R16   R(11,15)                1.1039                                         !
 ! R17   R(11,16)                1.8679                                         !
 ! R18   R(11,17)                1.0991                                         !
 ! R19   R(12,19)                1.4796                                         !
 ! R20   R(12,21)                1.4804                                         !
 ! R21   R(16,18)                2.2816                                         !
 ! R22   R(16,20)                1.9041                                         !
 ! R23   R(16,22)                1.9064                                         !
 ! R24   R(18,29)                1.8314                                         !
 ! R25   R(18,37)                2.0584                                         !
 ! R26   R(18,39)                2.0594                                         !
 ! R27   R(19,31)                1.0976                                         !
 ! R28   R(19,32)                1.5208                                         !
 ! R29   R(19,33)                1.0966                                         !
 ! R30   R(20,23)                1.5306                                         !
 ! R31   R(20,24)                1.5297                                         !
 ! R32   R(20,25)                1.5303                                         !
 ! R33   R(21,34)                1.0998                                         !
 ! R34   R(21,35)                1.5138                                         !
 ! R35   R(21,36)                1.1085                                         !
 ! R36   R(22,26)                1.5337                                         !
 ! R37   R(22,27)                1.5294                                         !
 ! R38   R(22,28)                1.5317                                         !
 ! R39   R(23,47)                1.1035                                         !
 ! R40   R(23,48)                1.0977                                         !
 ! R41   R(23,49)                1.1012                                         !
 ! R42   R(24,50)                1.1024                                         !
 ! R43   R(24,51)                1.1006                                         !
 ! R44   R(24,52)                1.0986                                         !
 ! R45   R(25,53)                1.1031                                         !
 ! R46   R(25,54)                1.0971                                         !
 ! R47   R(25,55)                1.0997                                         !
 ! R48   R(26,62)                1.1023                                         !
 ! R49   R(26,63)                1.0978                                         !
 ! R50   R(26,64)                1.1                                            !
 ! R51   R(27,56)                1.0981                                         !
 ! R52   R(27,57)                1.1029                                         !
 ! R53   R(27,58)                1.1006                                         !
 ! R54   R(28,59)                1.0963                                         !
 ! R55   R(28,60)                1.0963                                         !
 ! R56   R(28,61)                1.103                                          !
 ! R57   R(29,30)                1.1683                                         !
 ! R58   R(32,44)                1.1004                                         !
 ! R59   R(32,45)                1.1012                                         !
 ! R60   R(32,46)                1.1006                                         !
 ! R61   R(35,41)                1.1044                                         !
 ! R62   R(35,42)                1.1006                                         !
 ! R63   R(35,43)                1.1005                                         !
 ! R64   R(37,38)                0.9639                                         !
 ! R65   R(39,40)                0.9674                                         !
 ! A1    A(2,1,3)              120.9907                                         !
 ! A2    A(2,1,18)             117.5474                                         !
 ! A3    A(3,1,18)             120.5431                                         !
 ! A4    A(1,2,4)              121.2428                                         !
 ! A5    A(1,2,7)              114.2936                                         !
 ! A6    A(4,2,7)              124.4607                                         !
 ! A7    A(1,3,6)              120.0896                                         !
 ! A8    A(1,3,11)             116.6327                                         !
 ! A9    A(6,3,11)             123.2171                                         !
 ! A10   A(2,4,5)              118.6492                                         !
 ! A11   A(2,4,8)              119.9681                                         !
 ! A12   A(5,4,8)              121.382                                          !
 ! A13   A(4,5,6)              119.3925                                         !
 ! A14   A(4,5,9)              120.335                                          !
 ! A15   A(6,5,9)              120.256                                          !
 ! A16   A(3,6,5)              119.4744                                         !
 ! A17   A(3,6,10)             119.538                                          !
 ! A18   A(5,6,10)             120.9745                                         !
 ! A19   A(2,7,12)             111.6485                                         !
 ! A20   A(2,7,13)             110.4349                                         !
 ! A21   A(2,7,14)             108.2392                                         !
 ! A22   A(12,7,13)            112.0627                                         !
 ! A23   A(12,7,14)            107.1054                                         !
 ! A24   A(13,7,14)            107.1141                                         !
 ! A25   A(3,11,15)            105.9037                                         !
 ! A26   A(3,11,16)            111.1043                                         !
 ! A27   A(3,11,17)            112.0237                                         !
 ! A28   A(15,11,16)           102.0809                                         !
 ! A29   A(15,11,17)           109.6654                                         !
 ! A30   A(16,11,17)           115.1871                                         !
 ! A31   A(7,12,19)            111.1538                                         !
 ! A32   A(7,12,21)            108.2851                                         !
 ! A33   A(19,12,21)           112.3838                                         !
 ! A34   A(11,16,18)            95.9306                                         !
 ! A35   A(11,16,20)           103.8539                                         !
 ! A36   A(11,16,22)           103.4062                                         !
 ! A37   A(18,16,20)           121.807                                          !
 ! A38   A(18,16,22)           117.6791                                         !
 ! A39   A(20,16,22)           109.9436                                         !
 ! A40   A(1,18,16)             83.3069                                         !
 ! A41   A(1,18,29)            100.7441                                         !
 ! A42   A(1,18,37)            163.243                                          !
 ! A43   A(1,18,39)             80.0784                                         !
 ! A44   A(16,18,29)            97.8361                                         !
 ! A45   A(16,18,37)           101.3831                                         !
 ! A46   A(16,18,39)            86.1016                                         !
 ! A47   A(29,18,37)            94.5835                                         !
 ! A48   A(37,18,39)            84.1751                                         !
 ! A49   A(12,19,31)           106.7727                                         !
 ! A50   A(12,19,32)           116.2746                                         !
 ! A51   A(12,19,33)           106.3173                                         !
 ! A52   A(31,19,32)           111.8714                                         !
 ! A53   A(31,19,33)           104.2393                                         !
 ! A54   A(32,19,33)           110.5317                                         !
 ! A55   A(16,20,23)           107.4522                                         !
 ! A56   A(16,20,24)           109.6031                                         !
 ! A57   A(16,20,25)           112.974                                          !
 ! A58   A(23,20,24)           107.6432                                         !
 ! A59   A(23,20,25)           108.7141                                         !
 ! A60   A(24,20,25)           110.2725                                         !
 ! A61   A(12,21,34)           106.3495                                         !
 ! A62   A(12,21,35)           113.4654                                         !
 ! A63   A(12,21,36)           109.3302                                         !
 ! A64   A(34,21,35)           109.5684                                         !
 ! A65   A(34,21,36)           106.5841                                         !
 ! A66   A(35,21,36)           111.2064                                         !
 ! A67   A(16,22,26)           107.2617                                         !
 ! A68   A(16,22,27)           113.2229                                         !
 ! A69   A(16,22,28)           110.5999                                         !
 ! A70   A(26,22,27)           107.8617                                         !
 ! A71   A(26,22,28)           108.4166                                         !
 ! A72   A(27,22,28)           109.317                                          !
 ! A73   A(20,23,47)           108.111                                          !
 ! A74   A(20,23,48)           111.789                                          !
 ! A75   A(20,23,49)           110.6572                                         !
 ! A76   A(47,23,48)           108.9104                                         !
 ! A77   A(47,23,49)           109.8664                                         !
 ! A78   A(48,23,49)           107.4898                                         !
 ! A79   A(20,24,50)           108.5355                                         !
 ! A80   A(20,24,51)           111.4958                                         !
 ! A81   A(20,24,52)           113.0737                                         !
 ! A82   A(50,24,51)           107.3855                                         !
 ! A83   A(50,24,52)           107.3404                                         !
 ! A84   A(51,24,52)           108.7722                                         !
 ! A85   A(20,25,53)           108.3958                                         !
 ! A86   A(20,25,54)           113.7177                                         !
 ! A87   A(20,25,55)           111.6507                                         !
 ! A88   A(53,25,54)           107.4538                                         !
 ! A89   A(53,25,55)           106.8445                                         !
 ! A90   A(54,25,55)           108.4737                                         !
 ! A91   A(22,26,62)           108.5476                                         !
 ! A92   A(22,26,63)           112.3241                                         !
 ! A93   A(22,26,64)           112.1775                                         !
 ! A94   A(62,26,63)           107.8997                                         !
 ! A95   A(62,26,64)           107.3342                                         !
 ! A96   A(63,26,64)           108.3535                                         !
 ! A97   A(22,27,56)           112.5635                                         !
 ! A98   A(22,27,57)           108.7389                                         !
 ! A99   A(22,27,58)           112.4881                                         !
 ! A100  A(56,27,57)           107.1895                                         !
 ! A101  A(56,27,58)           108.4177                                         !
 ! A102  A(57,27,58)           107.1724                                         !
 ! A103  A(22,28,59)           112.5702                                         !
 ! A104  A(22,28,60)           112.1703                                         !
 ! A105  A(22,28,61)           108.6696                                         !
 ! A106  A(59,28,60)           108.302                                          !
 ! A107  A(59,28,61)           107.4395                                         !
 ! A108  A(60,28,61)           107.4604                                         !
 ! A109  A(19,32,44)           108.4767                                         !
 ! A110  A(19,32,45)           113.1097                                         !
 ! A111  A(19,32,46)           112.8969                                         !
 ! A112  A(44,32,45)           106.7911                                         !
 ! A113  A(44,32,46)           107.2491                                         !
 ! A114  A(45,32,46)           107.9867                                         !
 ! A115  A(21,35,41)           109.3335                                         !
 ! A116  A(21,35,42)           112.2834                                         !
 ! A117  A(21,35,43)           108.9485                                         !
 ! A118  A(41,35,42)           109.4978                                         !
 ! A119  A(41,35,43)           109.4115                                         !
 ! A120  A(42,35,43)           107.3136                                         !
 ! A121  A(18,37,38)           111.613                                          !
 ! A122  A(18,39,40)           100.9321                                         !
 ! A123  L(29,18,39,1,-1)      180.8225                                         !
 ! A124  L(18,29,30,13,-1)     178.2164                                         !
 ! A125  L(29,18,39,1,-2)      183.9387                                         !
 ! A126  L(18,29,30,13,-2)     176.1445                                         !
 ! D1    D(3,1,2,4)             -3.5609                                         !
 ! D2    D(3,1,2,7)            177.0323                                         !
 ! D3    D(18,1,2,4)          -172.6482                                         !
 ! D4    D(18,1,2,7)             7.945                                          !
 ! D5    D(2,1,3,6)              4.7353                                         !
 ! D6    D(2,1,3,11)          -172.525                                          !
 ! D7    D(18,1,3,6)           173.4969                                         !
 ! D8    D(18,1,3,11)           -3.7634                                         !
 ! D9    D(2,1,18,16)         -168.2571                                         !
 ! D10   D(2,1,18,29)          -71.5117                                         !
 ! D11   D(2,1,18,37)           84.3141                                         !
 ! D12   D(2,1,18,39)          104.5496                                         !
 ! D13   D(3,1,18,16)           22.6043                                         !
 ! D14   D(3,1,18,29)          119.3497                                         !
 ! D15   D(3,1,18,37)          -84.8245                                         !
 ! D16   D(3,1,18,39)          -64.589                                          !
 ! D17   D(1,2,4,5)              0.0969                                         !
 ! D18   D(1,2,4,8)            179.8069                                         !
 ! D19   D(7,2,4,5)            179.4411                                         !
 ! D20   D(7,2,4,8)             -0.8489                                         !
 ! D21   D(1,2,7,12)           -40.7193                                         !
 ! D22   D(1,2,7,13)          -166.1101                                         !
 ! D23   D(1,2,7,14)            76.9256                                         !
 ! D24   D(4,2,7,12)           139.8958                                         !
 ! D25   D(4,2,7,13)            14.505                                          !
 ! D26   D(4,2,7,14)          -102.4593                                         !
 ! D27   D(1,3,6,5)             -2.4703                                         !
 ! D28   D(1,3,6,10)           178.8317                                         !
 ! D29   D(11,3,6,5)           174.6022                                         !
 ! D30   D(11,3,6,10)           -4.0958                                         !
 ! D31   D(1,3,11,15)           86.4527                                         !
 ! D32   D(1,3,11,16)          -23.6216                                         !
 ! D33   D(1,3,11,17)         -154.0278                                         !
 ! D34   D(6,3,11,15)          -90.7137                                         !
 ! D35   D(6,3,11,16)          159.212                                          !
 ! D36   D(6,3,11,17)           28.8058                                         !
 ! D37   D(2,4,5,6)              2.0797                                         !
 ! D38   D(2,4,5,9)           -179.3913                                         !
 ! D39   D(8,4,5,6)           -177.626                                          !
 ! D40   D(8,4,5,9)              0.903                                          !
 ! D41   D(4,5,6,3)             -0.9199                                         !
 ! D42   D(4,5,6,10)           177.7589                                         !
 ! D43   D(9,5,6,3)           -179.45                                           !
 ! D44   D(9,5,6,10)            -0.7712                                         !
 ! D45   D(2,7,12,19)          -69.8849                                         !
 ! D46   D(2,7,12,21)          166.2046                                         !
 ! D47   D(13,7,12,19)          54.5998                                         !
 ! D48   D(13,7,12,21)         -69.3107                                         !
 ! D49   D(14,7,12,19)         171.7903                                         !
 ! D50   D(14,7,12,21)          47.8799                                         !
 ! D51   D(3,11,16,18)          34.3381                                         !
 ! D52   D(3,11,16,20)         159.1854                                         !
 ! D53   D(3,11,16,22)         -85.984                                          !
 ! D54   D(15,11,16,18)        -78.1805                                         !
 ! D55   D(15,11,16,20)         46.6669                                         !
 ! D56   D(15,11,16,22)        161.4975                                         !
 ! D57   D(17,11,16,18)        163.0711                                         !
 ! D58   D(17,11,16,20)        -72.0816                                         !
 ! D59   D(17,11,16,22)         42.749                                          !
 ! D60   D(7,12,19,31)          61.9561                                         !
 ! D61   D(7,12,19,32)         -63.6846                                         !
 ! D62   D(7,12,19,33)         172.8058                                         !
 ! D63   D(21,12,19,31)       -176.4975                                         !
 ! D64   D(21,12,19,32)         57.8617                                         !
 ! D65   D(21,12,19,33)        -65.6478                                         !
 ! D66   D(7,12,21,34)         -60.8391                                         !
 ! D67   D(7,12,21,35)         178.6396                                         !
 ! D68   D(7,12,21,36)          53.8774                                         !
 ! D69   D(19,12,21,34)        175.9915                                         !
 ! D70   D(19,12,21,35)         55.4702                                         !
 ! D71   D(19,12,21,36)        -69.2921                                         !
 ! D72   D(11,16,18,1)         -27.1549                                         !
 ! D73   D(11,16,18,29)       -127.1359                                         !
 ! D74   D(11,16,18,37)        136.5493                                         !
 ! D75   D(11,16,18,39)         53.2963                                         !
 ! D76   D(20,16,18,1)        -137.5017                                         !
 ! D77   D(20,16,18,29)        122.5174                                         !
 ! D78   D(20,16,18,37)         26.2025                                         !
 ! D79   D(20,16,18,39)        -57.0505                                         !
 ! D80   D(22,16,18,1)          81.3697                                         !
 ! D81   D(22,16,18,29)        -18.6113                                         !
 ! D82   D(22,16,18,37)       -114.9261                                         !
 ! D83   D(22,16,18,39)        161.8209                                         !
 ! D84   D(11,16,20,23)        -83.592                                          !
 ! D85   D(11,16,20,24)        159.7139                                         !
 ! D86   D(11,16,20,25)         36.3142                                         !
 ! D87   D(18,16,20,23)         22.5595                                         !
 ! D88   D(18,16,20,24)        -94.1346                                         !
 ! D89   D(18,16,20,25)        142.4657                                         !
 ! D90   D(22,16,20,23)        166.3164                                         !
 ! D91   D(22,16,20,24)         49.6223                                         !
 ! D92   D(22,16,20,25)        -73.7774                                         !
 ! D93   D(11,16,22,26)         53.3682                                         !
 ! D94   D(11,16,22,27)        -65.5024                                         !
 ! D95   D(11,16,22,28)        171.4167                                         !
 ! D96   D(18,16,22,26)        -50.8117                                         !
 ! D97   D(18,16,22,27)       -169.6823                                         !
 ! D98   D(18,16,22,28)         67.2368                                         !
 ! D99   D(20,16,22,26)        163.7542                                         !
 ! D100  D(20,16,22,27)         44.8837                                         !
 ! D101  D(20,16,22,28)        -78.1973                                         !
 ! D102  D(1,18,37,38)         167.5826                                         !
 ! D103  D(16,18,37,38)         62.7329                                         !
 ! D104  D(29,18,37,38)        -36.2222                                         !
 ! D105  D(39,18,37,38)        147.5549                                         !
 ! D106  D(1,18,39,40)        -173.5824                                         !
 ! D107  D(16,18,39,40)        102.5412                                         !
 ! D108  D(37,18,39,40)          0.6647                                         !
 ! D109  D(12,19,32,44)       -179.4666                                         !
 ! D110  D(12,19,32,45)         62.2555                                         !
 ! D111  D(12,19,32,46)        -60.7479                                         !
 ! D112  D(31,19,32,44)         57.5116                                         !
 ! D113  D(31,19,32,45)        -60.7663                                         !
 ! D114  D(31,19,32,46)        176.2303                                         !
 ! D115  D(33,19,32,44)        -58.1698                                         !
 ! D116  D(33,19,32,45)       -176.4477                                         !
 ! D117  D(33,19,32,46)         60.5489                                         !
 ! D118  D(16,20,23,47)       -177.1898                                         !
 ! D119  D(16,20,23,48)         62.9451                                         !
 ! D120  D(16,20,23,49)        -56.8308                                         !
 ! D121  D(24,20,23,47)        -59.2178                                         !
 ! D122  D(24,20,23,48)       -179.0829                                         !
 ! D123  D(24,20,23,49)         61.1412                                         !
 ! D124  D(25,20,23,47)         60.2297                                         !
 ! D125  D(25,20,23,48)        -59.6354                                         !
 ! D126  D(25,20,23,49)       -179.4113                                         !
 ! D127  D(16,20,24,50)        169.431                                          !
 ! D128  D(16,20,24,51)         51.3481                                         !
 ! D129  D(16,20,24,52)        -71.5881                                         !
 ! D130  D(23,20,24,50)         52.8574                                         !
 ! D131  D(23,20,24,51)        -65.2256                                         !
 ! D132  D(23,20,24,52)        171.8382                                         !
 ! D133  D(25,20,24,50)        -65.5927                                         !
 ! D134  D(25,20,24,51)        176.3244                                         !
 ! D135  D(25,20,24,52)         53.3882                                         !
 ! D136  D(16,20,25,53)       -179.2021                                         !
 ! D137  D(16,20,25,54)         61.3678                                         !
 ! D138  D(16,20,25,55)        -61.7778                                         !
 ! D139  D(23,20,25,53)        -60.0229                                         !
 ! D140  D(23,20,25,54)       -179.453                                          !
 ! D141  D(23,20,25,55)         57.4014                                         !
 ! D142  D(24,20,25,53)         57.7692                                         !
 ! D143  D(24,20,25,54)        -61.6609                                         !
 ! D144  D(24,20,25,55)        175.1934                                         !
 ! D145  D(12,21,35,41)         49.1984                                         !
 ! D146  D(12,21,35,42)        -72.54                                           !
 ! D147  D(12,21,35,43)        168.7264                                         !
 ! D148  D(34,21,35,41)        -69.4862                                         !
 ! D149  D(34,21,35,42)        168.7754                                         !
 ! D150  D(34,21,35,43)         50.0418                                         !
 ! D151  D(36,21,35,41)        172.9432                                         !
 ! D152  D(36,21,35,42)         51.2048                                         !
 ! D153  D(36,21,35,43)        -67.5289                                         !
 ! D154  D(16,22,26,62)        174.2444                                         !
 ! D155  D(16,22,26,63)         55.0201                                         !
 ! D156  D(16,22,26,64)        -67.3217                                         !
 ! D157  D(27,22,26,62)        -63.4828                                         !
 ! D158  D(27,22,26,63)        177.293                                          !
 ! D159  D(27,22,26,64)         54.9511                                         !
 ! D160  D(28,22,26,62)         54.7861                                         !
 ! D161  D(28,22,26,63)        -64.4381                                         !
 ! D162  D(28,22,26,64)        173.22                                           !
 ! D163  D(16,22,27,56)        -68.6703                                         !
 ! D164  D(16,22,27,57)        172.7161                                         !
 ! D165  D(16,22,27,58)         54.1699                                         !
 ! D166  D(26,22,27,56)        172.806                                          !
 ! D167  D(26,22,27,57)         54.1924                                         !
 ! D168  D(26,22,27,58)        -64.3538                                         !
 ! D169  D(28,22,27,56)         55.1163                                         !
 ! D170  D(28,22,27,57)        -63.4973                                         !
 ! D171  D(28,22,27,58)        177.9565                                         !
 ! D172  D(16,22,28,59)         67.9783                                         !
 ! D173  D(16,22,28,60)        -54.4738                                         !
 ! D174  D(16,22,28,61)       -173.1385                                         !
 ! D175  D(26,22,28,59)       -174.6813                                         !
 ! D176  D(26,22,28,60)         62.8666                                         !
 ! D177  D(26,22,28,61)        -55.7981                                         !
 ! D178  D(27,22,28,59)        -57.3406                                         !
 ! D179  D(27,22,28,60)       -179.7927                                         !
 ! D180  D(27,22,28,61)         61.5426                                         !
 --------------------------------------------------------------------------------
 Stoichiometry    C20H37N2O3PRu
 Framework group  C1[X(C20H37N2O3PRu)]
 Deg. of freedom   186
 Full point group                 C1      NOp   1
 Largest Abelian subgroup         C1      NOp   1
 Largest concise Abelian subgroup C1      NOp   1
                         Standard orientation:                         
 ---------------------------------------------------------------------
 Center     Atomic      Atomic             Coordinates (Angstroms)
 Number     Number       Type             X           Y           Z
 ---------------------------------------------------------------------
      1          7           0       -0.714614    1.411452   -0.055521
      2          6           0       -1.937253    1.873549    0.261832
      3          6           0        0.194590    2.207231   -0.652389
      4          6           0       -2.281284    3.202664    0.053608
      5          6           0       -1.331138    4.060303   -0.497172
      6          6           0       -0.087730    3.557090   -0.861706
      7          6           0       -2.850433    0.844287    0.855282
      8          1           0       -3.279592    3.554365    0.315619
      9          1           0       -1.568833    5.112484   -0.663414
     10          1           0        0.661920    4.197075   -1.328171
     11          6           0        1.457211    1.551827   -1.117836
     12          7           0       -2.724110   -0.455342    0.169506
     13          1           0       -3.891597    1.210429    0.861212
     14          1           0       -2.556080    0.686534    1.905735
     15          1           0        1.243037    1.167366   -2.130265
     16         15           0        1.789852   -0.019977   -0.165053
     17          1           0        2.297217    2.259372   -1.160896
     18         44           0       -0.399280   -0.613831    0.081718
     19          6           0       -3.282831   -0.393396   -1.199178
     20          6           0        2.973245   -0.995459   -1.293617
     21          6           0       -3.384750   -1.485948    1.002001
     22          6           0        2.721820    0.589881    1.382199
     23          6           0        2.117695   -1.741509   -2.320386
     24          6           0        3.724096   -2.041666   -0.467916
     25          6           0        3.963422   -0.097804   -2.038987
     26          6           0        1.863810    1.684719    2.028225
     27          6           0        4.090313    1.193559    1.063013
     28          6           0        2.893492   -0.549134    2.391745
     29          6           0       -0.394291   -0.836172    1.899562
     30          8           0       -0.458481   -1.026519    3.050493
     31          1           0       -2.689986    0.348120   -1.750050
     32          6           0       -4.774746   -0.118192   -1.305488
     33          1           0       -3.032780   -1.347927   -1.677515
     34          1           0       -2.850027   -1.497183    1.962951
     35          6           0       -3.352267   -2.869011    0.387502
     36          1           0       -4.424054   -1.169180    1.221920
     37          8           0       -0.322526   -2.629038   -0.330691
     38          1           0        0.224030   -3.101478    0.307460
     39          8           0       -0.538052   -0.414103   -1.963233
     40          1           0       -0.519269   -1.340939   -2.239786
     41          1           0       -2.321974   -3.101747    0.065118
     42          1           0       -4.035211   -2.960525   -0.470673
     43          1           0       -3.674040   -3.602850    1.141843
     44          1           0       -5.052700   -0.109139   -2.370168
     45          1           0       -5.064128    0.860889   -0.892823
     46          1           0       -5.388389   -0.888756   -0.814524
     47          1           0        2.789556   -2.351081   -2.948659
     48          1           0        1.558536   -1.050208   -2.964195
     49          1           0        1.384713   -2.390953   -1.816846
     50          1           0        4.255600   -2.717327   -1.158073
     51          1           0        3.033018   -2.657197    0.127773
     52          1           0        4.474757   -1.602643    0.203405
     53          1           0        4.598612   -0.734970   -2.677211
     54          1           0        4.627935    0.471198   -1.376960
     55          1           0        3.448079    0.608378   -2.706125
     56          1           0        4.810610    0.442659    0.712196
     57          1           0        4.504934    1.637942    1.983376
     58          1           0        4.031579    1.996358    0.312455
     59          1           0        3.574903   -1.329713    2.033590
     60          1           0        1.937802   -1.019144    2.651610
     61          1           0        3.322551   -0.136330    3.320202
     62          1           0        2.331878    1.980254    2.981435
     63          1           0        0.843861    1.341471    2.245293
     64          1           0        1.799787    2.586224    1.401157
 ---------------------------------------------------------------------
 Rotational constants (GHZ):           0.2485176           0.1536507           0.1330059
 General basis read from cards:  (5D, 7F)
 ======================================================================================================
                                       Pseudopotential Parameters
 ======================================================================================================
  Center     Atomic      Valence      Angular      Power
  Number     Number     Electrons     Momentum     of R      Exponent        Coefficient   SO-Coeffient
 ======================================================================================================
    1          7
                                   No pseudopotential on this center.
    2          6
                                   No pseudopotential on this center.
    3          6
                                   No pseudopotential on this center.
    4          6
                                   No pseudopotential on this center.
    5          6
                                   No pseudopotential on this center.
    6          6
                                   No pseudopotential on this center.
    7          6
                                   No pseudopotential on this center.
    8          1
                                   No pseudopotential on this center.
    9          1
                                   No pseudopotential on this center.
   10          1
                                   No pseudopotential on this center.
   11          6
                                   No pseudopotential on this center.
   12          7
                                   No pseudopotential on this center.
   13          1
                                   No pseudopotential on this center.
   14          1
                                   No pseudopotential on this center.
   15          1
                                   No pseudopotential on this center.
   16         15
                                   No pseudopotential on this center.
   17          1
                                   No pseudopotential on this center.
   18         44           16
                                      G and up 
                                                     2        1.0000000        0.00000000    0.00000000
                                      S - G
                                                     2       11.1052690      209.82297100    0.00000000
                                                     2        5.4147450       30.65472600    0.00000000
                                      P - G
                                                     2        9.7712710      146.33618200    0.00000000
                                                     2        5.0739910       24.12787700    0.00000000
                                      D - G
                                                     2        7.6714230       67.51589700    0.00000000
                                                     2        4.1365650        9.87010400    0.00000000
                                      F - G
                                                     2       11.3600000      -28.34061600    0.00000000
                                                     2        5.6800000       -4.94462900    0.00000000
   19          6
                                   No pseudopotential on this center.
   20          6
                                   No pseudopotential on this center.
   21          6
                                   No pseudopotential on this center.
   22          6
                                   No pseudopotential on this center.
   23          6
                                   No pseudopotential on this center.
   24          6
                                   No pseudopotential on this center.
   25          6
                                   No pseudopotential on this center.
   26          6
                                   No pseudopotential on this center.
   27          6
                                   No pseudopotential on this center.
   28          6
                                   No pseudopotential on this center.
   29          6
                                   No pseudopotential on this center.
   30          8
                                   No pseudopotential on this center.
   31          1
                                   No pseudopotential on this center.
   32          6
                                   No pseudopotential on this center.
   33          1
                                   No pseudopotential on this center.
   34          1
                                   No pseudopotential on this center.
   35          6
                                   No pseudopotential on this center.
   36          1
                                   No pseudopotential on this center.
   37          8
                                   No pseudopotential on this center.
   38          1
                                   No pseudopotential on this center.
   39          8
                                   No pseudopotential on this center.
   40          1
                                   No pseudopotential on this center.
   41          1
                                   No pseudopotential on this center.
   42          1
                                   No pseudopotential on this center.
   43          1
                                   No pseudopotential on this center.
   44          1
                                   No pseudopotential on this center.
   45          1
                                   No pseudopotential on this center.
   46          1
                                   No pseudopotential on this center.
   47          1
                                   No pseudopotential on this center.
   48          1
                                   No pseudopotential on this center.
   49          1
                                   No pseudopotential on this center.
   50          1
                                   No pseudopotential on this center.
   51          1
                                   No pseudopotential on this center.
   52          1
                                   No pseudopotential on this center.
   53          1
                                   No pseudopotential on this center.
   54          1
                                   No pseudopotential on this center.
   55          1
                                   No pseudopotential on this center.
   56          1
                                   No pseudopotential on this center.
   57          1
                                   No pseudopotential on this center.
   58          1
                                   No pseudopotential on this center.
   59          1
                                   No pseudopotential on this center.
   60          1
                                   No pseudopotential on this center.
   61          1
                                   No pseudopotential on this center.
   62          1
                                   No pseudopotential on this center.
   63          1
                                   No pseudopotential on this center.
   64          1
                                   No pseudopotential on this center.
 ======================================================================================================
 There are  1508 symmetry adapted cartesian basis functions of A   symmetry.
 There are  1338 symmetry adapted basis functions of A   symmetry.
  1338 basis functions,  2089 primitive gaussians,  1508 cartesian basis functions
   113 alpha electrons      113 beta electrons
       nuclear repulsion energy      3496.8706660945 Hartrees.
 NAtoms=   64 NActive=   64 NUniq=   64 SFac= 1.00D+00 NAtFMM=   60 NAOKFM=T Big=T
 Integral buffers will be    131072 words long.
 Raffenetti 2 integral format.
 Two-electron integral symmetry is turned on.
 Nuclear repulsion after empirical dispersion term =     3496.7738730579 Hartrees.
 ------------------------------------------------------------------------------
 Polarizable Continuum Model (PCM)
 =================================
 Model                : PCM.
 Atomic radii         : SMD-Coulomb.
 Polarization charges : Total charges.
 Charge compensation  : None.
 Solution method      : On-the-fly selection.
 Cavity type          : VdW (van der Waals Surface) (Alpha=1.000).
 Cavity algorithm     : GePol (No added spheres)
                        Default sphere list used, NSphG=   64.
                        Lebedev-Laikov grids with approx.  5.0 points / Ang**2.
                        Smoothing algorithm: York/Karplus (Gamma=1.0000).
                        Polarization charges: spherical gaussians, with
                                              point-specific exponents (IZeta= 3).
                        Self-potential: point-specific (ISelfS= 7).
                        Self-field    : sphere-specific E.n sum rule (ISelfD= 2).
 Solvent              : Water, Eps=  78.355300 Eps(inf)=   1.777849
 ------------------------------------------------------------------------------
 ------------------------------------------------------------------------------
 Atomic radii for non-electrostatic terms: SMD-CDS.
 ------------------------------------------------------------------------------
 Nuclear repulsion after PCM non-electrostatic terms =     3496.7912640993 Hartrees.
 One-electron integrals computed using PRISM.
   1 Symmetry operations used in ECPInt.
 ECPInt:  NShTT=  124251 NPrTT=  443524 LenC2=  106930 LenP2D=  249308.
 LDataN:  DoStor=T MaxTD1= 7 Len=  274
 Number of processors reduced to  11 by ecpmxn.
 NBasis=  1338 RedAO= T EigKep=  3.85D-05  NBF=  1338
 NBsUse=  1338 1.00D-06 EigRej= -1.00D+00 NBFU=  1338
 Defaulting to unpruned grid for atomic number  44.
 ExpMin= 1.60D-02 ExpMax= 3.12D+05 ExpMxC= 9.87D+02 IAcc=3 IRadAn=         5 AccDes= 0.00D+00
 Harris functional with IExCor= 1009 and IRadAn=       5 diagonalized for initial guess.
 HarFok:  IExCor= 1009 AccDes= 0.00D+00 IRadAn=         5 IDoV= 1 UseB2=F ITyADJ=14
 ICtDFT=  3500011 ScaDFX=  1.000000  1.000000  1.000000  1.000000
 Defaulting to unpruned grid for atomic number  44.
 FoFCou: FMM=F IPFlag=           0 FMFlag=      100000 FMFlg1=        2001
         NFxFlg=           0 DoJE=T BraDBF=F KetDBF=T FulRan=T
         wScrn=  0.000000 ICntrl=       500 IOpCl=  0 I1Cent=   200000004 NGrid=           0
         NMat0=    1 NMatS0=      1 NMatT0=    0 NMatD0=    1 NMtDS0=    0 NMtDT0=    0
 Petite list used in FoFCou.
 Requested convergence on RMS density matrix=1.00D-08 within 128 cycles.
 Requested convergence on MAX density matrix=1.00D-06.
 Requested convergence on             energy=1.00D-06.
 No special actions if energy rises.
 Defaulting to unpruned grid for atomic number  44.
 Defaulting to unpruned grid for atomic number  44.
 Defaulting to unpruned grid for atomic number  44.
 Defaulting to unpruned grid for atomic number  44.
 Defaulting to unpruned grid for atomic number  44.
 Defaulting to unpruned grid for atomic number  44.
 Defaulting to unpruned grid for atomic number  44.
 Defaulting to unpruned grid for atomic number  44.
 Defaulting to unpruned grid for atomic number  44.
 Defaulting to unpruned grid for atomic number  44.
 Defaulting to unpruned grid for atomic number  44.
 Defaulting to unpruned grid for atomic number  44.
 Defaulting to unpruned grid for atomic number  44.
 Defaulting to unpruned grid for atomic number  44.
 Defaulting to unpruned grid for atomic number  44.
 Defaulting to unpruned grid for atomic number  44.
 Defaulting to unpruned grid for atomic number  44.
 Defaulting to unpruned grid for atomic number  44.
 Defaulting to unpruned grid for atomic number  44.
 Defaulting to unpruned grid for atomic number  44.
 Inv3:  Mode=1 IEnd=    46429068.
 Iteration    1 A*A^-1 deviation from unit magnitude is 1.27D-14 for   1541.
 Iteration    1 A*A^-1 deviation from orthogonality  is 1.36D-14 for   2516    156.
 Iteration    1 A^-1*A deviation from unit magnitude is 1.31D-14 for    743.
 Iteration    1 A^-1*A deviation from orthogonality  is 7.55D-13 for   3453   3416.
 Error on total polarization charges =  0.07973
 SCF Done:  E(RPBE1PBE) =  -1555.00717846     A.U. after   17 cycles
            NFock= 17  Conv=0.15D-08     -V/T= 2.0471
 SMD-CDS (non-electrostatic) energy       (kcal/mol) =      10.91
 (included in total energy above)

 **********************************************************************

            Population analysis using the SCF density.

 **********************************************************************

 Orbital symmetries:
       Occupied  (A) (A) (A) (A) (A) (A) (A) (A) (A) (A) (A) (A)
                 (A) (A) (A) (A) (A) (A) (A) (A) (A) (A) (A) (A)
                 (A) (A) (A) (A) (A) (A) (A) (A) (A) (A) (A) (A)
                 (A) (A) (A) (A) (A) (A) (A) (A) (A) (A) (A) (A)
                 (A) (A) (A) (A) (A) (A) (A) (A) (A) (A) (A) (A)
                 (A) (A) (A) (A) (A) (A) (A) (A) (A) (A) (A) (A)
                 (A) (A) (A) (A) (A) (A) (A) (A) (A) (A) (A) (A)
                 (A) (A) (A) (A) (A) (A) (A) (A) (A) (A) (A) (A)
                 (A) (A) (A) (A) (A) (A) (A) (A) (A) (A) (A) (A)
                 (A) (A) (A) (A) (A)
       Virtual   (A) (A) (A) (A) (A) (A) (A) (A) (A) (A) (A) (A)
                 (A) (A) (A) (A) (A) (A) (A) (A) (A) (A) (A) (A)
                 (A) (A) (A) (A) (A) (A) (A) (A) (A) (A) (A) (A)
                 (A) (A) (A) (A) (A) (A) (A) (A) (A) (A) (A) (A)
                 (A) (A) (A) (A) (A) (A) (A) (A) (A) (A) (A) (A)
                 (A) (A) (A) (A) (A) (A) (A) (A) (A) (A) (A) (A)
                 (A) (A) (A) (A) (A) (A) (A) (A) (A) (A) (A) (A)
                 (A) (A) (A) (A) (A) (A) (A) (A) (A) (A) (A) (A)
                 (A) (A) (A) (A) (A) (A) (A) (A) (A) (A) (A) (A)
                 (A) (A) (A) (A) (A) (A) (A) (A) (A) (A) (A) (A)
                 (A) (A) (A) (A) (A) (A) (A) (A) (A) (A) (A) (A)
                 (A) (A) (A) (A) (A) (A) (A) (A) (A) (A) (A) (A)
                 (A) (A) (A) (A) (A) (A) (A) (A) (A) (A) (A) (A)
                 (A) (A) (A) (A) (A) (A) (A) (A) (A) (A) (A) (A)
                 (A) (A) (A) (A) (A) (A) (A) (A) (A) (A) (A) (A)
                 (A) (A) (A) (A) (A) (A) (A) (A) (A) (A) (A) (A)
                 (A) (A) (A) (A) (A) (A) (A) (A) (A) (A) (A) (A)
                 (A) (A) (A) (A) (A) (A) (A) (A) (A) (A) (A) (A)
                 (A) (A) (A) (A) (A) (A) (A) (A) (A) (A) (A) (A)
                 (A) (A) (A) (A) (A) (A) (A) (A) (A) (A) (A) (A)
                 (A) (A) (A) (A) (A) (A) (A) (A) (A) (A) (A) (A)
                 (A) (A) (A) (A) (A) (A) (A) (A) (A) (A) (A) (A)
                 (A) (A) (A) (A) (A) (A) (A) (A) (A) (A) (A) (A)
                 (A) (A) (A) (A) (A) (A) (A) (A) (A) (A) (A) (A)
                 (A) (A) (A) (A) (A) (A) (A) (A) (A) (A) (A) (A)
                 (A) (A) (A) (A) (A) (A) (A) (A) (A) (A) (A) (A)
                 (A) (A) (A) (A) (A) (A) (A) (A) (A) (A) (A) (A)
                 (A) (A) (A) (A) (A) (A) (A) (A) (A) (A) (A) (A)
                 (A) (A) (A) (A) (A) (A) (A) (A) (A) (A) (A) (A)
                 (A) (A) (A) (A) (A) (A) (A) (A) (A) (A) (A) (A)
                 (A) (A) (A) (A) (A) (A) (A) (A) (A) (A) (A) (A)
                 (A) (A) (A) (A) (A) (A) (A) (A) (A) (A) (A) (A)
                 (A) (A) (A) (A) (A) (A) (A) (A) (A) (A) (A) (A)
                 (A) (A) (A) (A) (A) (A) (A) (A) (A) (A) (A) (A)
                 (A) (A) (A) (A) (A) (A) (A) (A) (A) (A) (A) (A)
                 (A) (A) (A) (A) (A) (A) (A) (A) (A) (A) (A) (A)
                 (A) (A) (A) (A) (A) (A) (A) (A) (A) (A) (A) (A)
                 (A) (A) (A) (A) (A) (A) (A) (A) (A) (A) (A) (A)
                 (A) (A) (A) (A) (A) (A) (A) (A) (A) (A) (A) (A)
                 (A) (A) (A) (A) (A) (A) (A) (A) (A) (A) (A) (A)
                 (A) (A) (A) (A) (A) (A) (A) (A) (A) (A) (A) (A)
                 (A) (A) (A) (A) (A) (A) (A) (A) (A) (A) (A) (A)
                 (A) (A) (A) (A) (A) (A) (A) (A) (A) (A) (A) (A)
                 (A) (A) (A) (A) (A) (A) (A) (A) (A) (A) (A) (A)
                 (A) (A) (A) (A) (A) (A) (A) (A) (A) (A) (A) (A)
                 (A) (A) (A) (A) (A) (A) (A) (A) (A) (A) (A) (A)
                 (A) (A) (A) (A) (A) (A) (A) (A) (A) (A) (A) (A)
                 (A) (A) (A) (A) (A) (A) (A) (A) (A) (A) (A) (A)
                 (A) (A) (A) (A) (A) (A) (A) (A) (A) (A) (A) (A)
                 (A) (A) (A) (A) (A) (A) (A) (A) (A) (A) (A) (A)
                 (A) (A) (A) (A) (A) (A) (A) (A) (A) (A) (A) (A)
                 (A) (A) (A) (A) (A) (A) (A) (A) (A) (A) (A) (A)
                 (A) (A) (A) (A) (A) (A) (A) (A) (A) (A) (A) (A)
                 (A) (A) (A) (A) (A) (A) (A) (A) (A) (A) (A) (A)
                 (A) (A) (A) (A) (A) (A) (A) (A) (A) (A) (A) (A)
                 (A) (A) (A) (A) (A) (A) (A) (A) (A) (A) (A) (A)
                 (A) (A) (A) (A) (A) (A) (A) (A) (A) (A) (A) (A)
                 (A) (A) (A) (A) (A) (A) (A) (A) (A) (A) (A) (A)
                 (A) (A) (A) (A) (A) (A) (A) (A) (A) (A) (A) (A)
                 (A) (A) (A) (A) (A) (A) (A) (A) (A) (A) (A) (A)
                 (A) (A) (A) (A) (A) (A) (A) (A) (A) (A) (A) (A)
                 (A) (A) (A) (A) (A) (A) (A) (A) (A) (A) (A) (A)
                 (A) (A) (A) (A) (A) (A) (A) (A) (A) (A) (A) (A)
                 (A) (A) (A) (A) (A) (A) (A) (A) (A) (A) (A) (A)
                 (A) (A) (A) (A) (A) (A) (A) (A) (A) (A) (A) (A)
                 (A) (A) (A) (A) (A) (A) (A) (A) (A) (A) (A) (A)
                 (A) (A) (A) (A) (A) (A) (A) (A) (A) (A) (A) (A)
                 (A) (A) (A) (A) (A) (A) (A) (A) (A) (A) (A) (A)
                 (A) (A) (A) (A) (A) (A) (A) (A) (A) (A) (A) (A)
                 (A) (A) (A) (A) (A) (A) (A) (A) (A) (A) (A) (A)
                 (A) (A) (A) (A) (A) (A) (A) (A) (A) (A) (A) (A)
                 (A) (A) (A) (A) (A) (A) (A) (A) (A) (A) (A) (A)
                 (A) (A) (A) (A) (A) (A) (A) (A) (A) (A) (A) (A)
                 (A) (A) (A) (A) (A) (A) (A) (A) (A) (A) (A) (A)
                 (A) (A) (A) (A) (A) (A) (A) (A) (A) (A) (A) (A)
                 (A) (A) (A) (A) (A) (A) (A) (A) (A) (A) (A) (A)
                 (A) (A) (A) (A) (A) (A) (A) (A) (A) (A) (A) (A)
                 (A) (A) (A) (A) (A) (A) (A) (A) (A) (A) (A) (A)
                 (A) (A) (A) (A) (A) (A) (A) (A) (A) (A) (A) (A)
                 (A) (A) (A) (A) (A) (A) (A) (A) (A) (A) (A) (A)
                 (A) (A) (A) (A) (A) (A) (A) (A) (A) (A) (A) (A)
                 (A) (A) (A) (A) (A) (A) (A) (A) (A) (A) (A) (A)
                 (A) (A) (A) (A) (A) (A) (A) (A) (A) (A) (A) (A)
                 (A) (A) (A) (A) (A) (A) (A) (A) (A) (A) (A) (A)
                 (A) (A) (A) (A) (A) (A) (A) (A) (A) (A) (A) (A)
                 (A) (A) (A) (A) (A) (A) (A) (A) (A) (A) (A) (A)
                 (A) (A) (A) (A) (A) (A) (A) (A) (A) (A) (A) (A)
                 (A) (A) (A) (A) (A) (A) (A) (A) (A) (A) (A) (A)
                 (A) (A) (A) (A) (A) (A) (A) (A) (A) (A) (A) (A)
                 (A) (A) (A) (A) (A) (A) (A) (A) (A) (A) (A) (A)
                 (A) (A) (A) (A) (A) (A) (A) (A) (A) (A) (A) (A)
                 (A) (A) (A) (A) (A) (A) (A) (A) (A) (A) (A) (A)
                 (A) (A) (A) (A) (A) (A) (A) (A) (A) (A) (A) (A)
                 (A) (A) (A) (A) (A) (A) (A) (A) (A) (A) (A) (A)
                 (A) (A) (A) (A) (A) (A) (A) (A) (A) (A) (A) (A)
                 (A) (A) (A) (A) (A) (A) (A) (A) (A) (A) (A) (A)
                 (A) (A) (A) (A) (A) (A) (A) (A) (A) (A) (A) (A)
                 (A) (A) (A) (A) (A) (A) (A) (A) (A) (A) (A) (A)
                 (A) (A) (A) (A) (A) (A) (A) (A) (A) (A) (A) (A)
                 (A) (A) (A) (A) (A) (A) (A) (A) (A) (A) (A) (A)
                 (A) (A) (A) (A) (A) (A) (A) (A) (A) (A) (A) (A)
                 (A) (A) (A) (A) (A) (A) (A) (A) (A) (A) (A) (A)
                 (A)
 The electronic state is 1-A.
 Alpha  occ. eigenvalues --  -77.25385 -19.24665 -19.13988 -19.12937 -14.43212
 Alpha  occ. eigenvalues --  -14.42178 -10.30808 -10.28798 -10.28322 -10.25802
 Alpha  occ. eigenvalues --  -10.25041 -10.25006 -10.24837 -10.24423 -10.24049
 Alpha  occ. eigenvalues --  -10.23987 -10.23799 -10.23312 -10.20862 -10.20851
 Alpha  occ. eigenvalues --  -10.20804 -10.20695 -10.20625 -10.20538 -10.19793
 Alpha  occ. eigenvalues --  -10.19733  -6.62801  -4.76469  -4.76390  -4.76162
 Alpha  occ. eigenvalues --   -3.04314  -1.88216  -1.86962  -1.86715  -1.12200
 Alpha  occ. eigenvalues --   -1.00692  -0.96444  -0.93253  -0.92202  -0.85058
 Alpha  occ. eigenvalues --   -0.83761  -0.83237  -0.82590  -0.77503  -0.76890
 Alpha  occ. eigenvalues --   -0.74003  -0.70508  -0.70289  -0.70067  -0.69555
 Alpha  occ. eigenvalues --   -0.69108  -0.65950  -0.65825  -0.63101  -0.61926
 Alpha  occ. eigenvalues --   -0.57450  -0.56803  -0.56026  -0.53389  -0.53022
 Alpha  occ. eigenvalues --   -0.51919  -0.50995  -0.50324  -0.48329  -0.47572
 Alpha  occ. eigenvalues --   -0.47079  -0.46119  -0.45806  -0.45530  -0.45237
 Alpha  occ. eigenvalues --   -0.45065  -0.44445  -0.44217  -0.43887  -0.43509
 Alpha  occ. eigenvalues --   -0.43392  -0.42918  -0.42434  -0.41716  -0.41445
 Alpha  occ. eigenvalues --   -0.41017  -0.40118  -0.39604  -0.39250  -0.38839
 Alpha  occ. eigenvalues --   -0.38460  -0.38402  -0.38106  -0.38005  -0.36903
 Alpha  occ. eigenvalues --   -0.36581  -0.36465  -0.35983  -0.35608  -0.34758
 Alpha  occ. eigenvalues --   -0.34702  -0.34273  -0.33722  -0.33592  -0.33024
 Alpha  occ. eigenvalues --   -0.32751  -0.31921  -0.31530  -0.30365  -0.29789
 Alpha  occ. eigenvalues --   -0.29013  -0.28229  -0.27600  -0.26748  -0.26500
 Alpha  occ. eigenvalues --   -0.22387  -0.21541  -0.19563
 Alpha virt. eigenvalues --   -0.04089  -0.02076  -0.00069   0.00695   0.01681
 Alpha virt. eigenvalues --    0.02256   0.03083   0.03193   0.03470   0.05039
 Alpha virt. eigenvalues --    0.06247   0.07416   0.07681   0.07858   0.07933
 Alpha virt. eigenvalues --    0.08759   0.08835   0.09671   0.09941   0.10067
 Alpha virt. eigenvalues --    0.10203   0.10865   0.11076   0.11555   0.11819
 Alpha virt. eigenvalues --    0.11879   0.12350   0.12792   0.13029   0.13130
 Alpha virt. eigenvalues --    0.13337   0.14138   0.14407   0.14798   0.15006
 Alpha virt. eigenvalues --    0.15482   0.15737   0.15827   0.16201   0.16375
 Alpha virt. eigenvalues --    0.16695   0.17011   0.17366   0.17911   0.17969
 Alpha virt. eigenvalues --    0.18409   0.18709   0.18735   0.18852   0.19283
 Alpha virt. eigenvalues --    0.19712   0.20009   0.20195   0.20565   0.20916
 Alpha virt. eigenvalues --    0.21153   0.21384   0.21767   0.22030   0.22607
 Alpha virt. eigenvalues --    0.22746   0.23000   0.23991   0.24539   0.25017
 Alpha virt. eigenvalues --    0.25778   0.26086   0.26348   0.26835   0.27133
 Alpha virt. eigenvalues --    0.27548   0.28285   0.28983   0.29170   0.29451
 Alpha virt. eigenvalues --    0.29599   0.30114   0.30847   0.30895   0.31200
 Alpha virt. eigenvalues --    0.31577   0.31911   0.32548   0.32760   0.33878
 Alpha virt. eigenvalues --    0.34152   0.34417   0.34489   0.34612   0.35494
 Alpha virt. eigenvalues --    0.35876   0.36657   0.36944   0.37545   0.37905
 Alpha virt. eigenvalues --    0.38156   0.38434   0.38633   0.38902   0.39300
 Alpha virt. eigenvalues --    0.39833   0.40436   0.40739   0.41014   0.41557
 Alpha virt. eigenvalues --    0.41892   0.42509   0.42906   0.43395   0.43698
 Alpha virt. eigenvalues --    0.43966   0.44209   0.44311   0.44428   0.44939
 Alpha virt. eigenvalues --    0.45024   0.45369   0.45650   0.45825   0.46491
 Alpha virt. eigenvalues --    0.46524   0.46934   0.47026   0.47342   0.47560
 Alpha virt. eigenvalues --    0.48075   0.48204   0.48259   0.48675   0.49176
 Alpha virt. eigenvalues --    0.49200   0.49635   0.49982   0.50048   0.50336
 Alpha virt. eigenvalues --    0.50645   0.50858   0.51189   0.51514   0.51789
 Alpha virt. eigenvalues --    0.52020   0.52239   0.52685   0.53002   0.53341
 Alpha virt. eigenvalues --    0.53485   0.53843   0.54004   0.54486   0.54566
 Alpha virt. eigenvalues --    0.55048   0.55295   0.55401   0.55616   0.56121
 Alpha virt. eigenvalues --    0.56230   0.56529   0.57164   0.57310   0.57814
 Alpha virt. eigenvalues --    0.58308   0.58530   0.58611   0.59057   0.59416
 Alpha virt. eigenvalues --    0.59562   0.59972   0.60437   0.60711   0.61371
 Alpha virt. eigenvalues --    0.61594   0.62283   0.62644   0.63300   0.63535
 Alpha virt. eigenvalues --    0.63570   0.64218   0.64698   0.64772   0.65021
 Alpha virt. eigenvalues --    0.65595   0.66681   0.66886   0.67332   0.67589
 Alpha virt. eigenvalues --    0.67889   0.68763   0.69436   0.70112   0.70928
 Alpha virt. eigenvalues --    0.71729   0.72327   0.72684   0.73543   0.73933
 Alpha virt. eigenvalues --    0.74369   0.75025   0.75336   0.75483   0.75823
 Alpha virt. eigenvalues --    0.76277   0.76749   0.77467   0.77813   0.78405
 Alpha virt. eigenvalues --    0.79348   0.79568   0.79690   0.80432   0.80914
 Alpha virt. eigenvalues --    0.80966   0.81768   0.81875   0.82549   0.82814
 Alpha virt. eigenvalues --    0.83018   0.83453   0.84837   0.84974   0.85292
 Alpha virt. eigenvalues --    0.86072   0.86570   0.87085   0.87787   0.87875
 Alpha virt. eigenvalues --    0.88011   0.88700   0.88876   0.89444   0.89952
 Alpha virt. eigenvalues --    0.90159   0.90459   0.91354   0.91765   0.92209
 Alpha virt. eigenvalues --    0.92571   0.93110   0.93610   0.93868   0.94491
 Alpha virt. eigenvalues --    0.95062   0.95246   0.95539   0.96123   0.96440
 Alpha virt. eigenvalues --    0.96702   0.97088   0.97610   0.97804   0.98047
 Alpha virt. eigenvalues --    0.98760   0.98982   0.99260   0.99516   1.00235
 Alpha virt. eigenvalues --    1.00473   1.00684   1.01115   1.01585   1.02233
 Alpha virt. eigenvalues --    1.02597   1.02884   1.03435   1.03858   1.04034
 Alpha virt. eigenvalues --    1.04315   1.04940   1.05308   1.05692   1.06514
 Alpha virt. eigenvalues --    1.06768   1.06888   1.07264   1.07835   1.08445
 Alpha virt. eigenvalues --    1.08508   1.08926   1.09944   1.10383   1.10693
 Alpha virt. eigenvalues --    1.10783   1.11246   1.11480   1.11964   1.12484
 Alpha virt. eigenvalues --    1.12958   1.13393   1.13754   1.13984   1.14434
 Alpha virt. eigenvalues --    1.14704   1.15067   1.15421   1.15535   1.16010
 Alpha virt. eigenvalues --    1.16855   1.17050   1.17411   1.18217   1.18342
 Alpha virt. eigenvalues --    1.18479   1.19089   1.19452   1.19895   1.20051
 Alpha virt. eigenvalues --    1.20110   1.20663   1.21441   1.21776   1.22542
 Alpha virt. eigenvalues --    1.22855   1.23339   1.23647   1.24117   1.24271
 Alpha virt. eigenvalues --    1.24526   1.25024   1.25657   1.25957   1.26174
 Alpha virt. eigenvalues --    1.26383   1.26826   1.26980   1.27588   1.27899
 Alpha virt. eigenvalues --    1.28187   1.28305   1.28715   1.29078   1.29543
 Alpha virt. eigenvalues --    1.29870   1.30170   1.30566   1.31188   1.31409
 Alpha virt. eigenvalues --    1.31561   1.32196   1.32675   1.32985   1.33083
 Alpha virt. eigenvalues --    1.33776   1.34225   1.34656   1.34709   1.34935
 Alpha virt. eigenvalues --    1.35324   1.35934   1.35998   1.36299   1.36592
 Alpha virt. eigenvalues --    1.37226   1.37428   1.37873   1.38258   1.38800
 Alpha virt. eigenvalues --    1.39005   1.39500   1.39672   1.40035   1.40505
 Alpha virt. eigenvalues --    1.40755   1.41049   1.41974   1.42063   1.42110
 Alpha virt. eigenvalues --    1.42992   1.43080   1.43558   1.43736   1.44427
 Alpha virt. eigenvalues --    1.45039   1.45259   1.45712   1.46192   1.46307
 Alpha virt. eigenvalues --    1.46874   1.47495   1.47943   1.48969   1.49074
 Alpha virt. eigenvalues --    1.49566   1.49983   1.50608   1.50890   1.51051
 Alpha virt. eigenvalues --    1.51876   1.52335   1.52519   1.53220   1.54028
 Alpha virt. eigenvalues --    1.54367   1.54414   1.54889   1.55672   1.56257
 Alpha virt. eigenvalues --    1.56383   1.57162   1.57836   1.58392   1.58780
 Alpha virt. eigenvalues --    1.59235   1.59454   1.59758   1.60384   1.60734
 Alpha virt. eigenvalues --    1.61128   1.61371   1.61782   1.62290   1.62981
 Alpha virt. eigenvalues --    1.63275   1.63807   1.64614   1.64902   1.65086
 Alpha virt. eigenvalues --    1.65665   1.66689   1.67263   1.67340   1.68370
 Alpha virt. eigenvalues --    1.68929   1.69797   1.70182   1.70373   1.71481
 Alpha virt. eigenvalues --    1.72061   1.72742   1.73053   1.73682   1.74869
 Alpha virt. eigenvalues --    1.75469   1.76129   1.77216   1.77345   1.78536
 Alpha virt. eigenvalues --    1.79132   1.79281   1.80524   1.81150   1.81565
 Alpha virt. eigenvalues --    1.83252   1.84271   1.84590   1.85979   1.86427
 Alpha virt. eigenvalues --    1.86931   1.87556   1.89495   1.90424   1.90736
 Alpha virt. eigenvalues --    1.91329   1.92649   1.93049   1.94772   1.95027
 Alpha virt. eigenvalues --    1.96047   1.96563   1.96794   1.98532   1.99632
 Alpha virt. eigenvalues --    2.00519   2.00916   2.02598   2.03072   2.04035
 Alpha virt. eigenvalues --    2.04860   2.07224   2.07858   2.08517   2.09841
 Alpha virt. eigenvalues --    2.10540   2.12410   2.14207   2.16177   2.16881
 Alpha virt. eigenvalues --    2.18409   2.20525   2.21950   2.22645   2.24227
 Alpha virt. eigenvalues --    2.24757   2.27337   2.27415   2.28639   2.29651
 Alpha virt. eigenvalues --    2.31411   2.32127   2.32804   2.33940   2.34305
 Alpha virt. eigenvalues --    2.35065   2.35719   2.36709   2.37304   2.37815
 Alpha virt. eigenvalues --    2.38258   2.39673   2.39977   2.40757   2.41773
 Alpha virt. eigenvalues --    2.42809   2.43259   2.44123   2.45290   2.45915
 Alpha virt. eigenvalues --    2.46092   2.46429   2.46854   2.48072   2.48678
 Alpha virt. eigenvalues --    2.49310   2.49593   2.50120   2.50673   2.51594
 Alpha virt. eigenvalues --    2.52448   2.52847   2.53614   2.54335   2.54724
 Alpha virt. eigenvalues --    2.55409   2.55596   2.56144   2.57228   2.57364
 Alpha virt. eigenvalues --    2.58036   2.58204   2.58945   2.60377   2.60445
 Alpha virt. eigenvalues --    2.61286   2.61660   2.62029   2.63033   2.63453
 Alpha virt. eigenvalues --    2.63944   2.64696   2.64964   2.65375   2.65752
 Alpha virt. eigenvalues --    2.66895   2.67357   2.67785   2.68167   2.68319
 Alpha virt. eigenvalues --    2.68623   2.69605   2.70393   2.70524   2.70886
 Alpha virt. eigenvalues --    2.71156   2.71404   2.72397   2.72932   2.73368
 Alpha virt. eigenvalues --    2.73774   2.73933   2.74247   2.74430   2.76117
 Alpha virt. eigenvalues --    2.76429   2.77077   2.77715   2.78006   2.78147
 Alpha virt. eigenvalues --    2.78752   2.79134   2.79283   2.79957   2.80397
 Alpha virt. eigenvalues --    2.81191   2.81449   2.81541   2.81859   2.82263
 Alpha virt. eigenvalues --    2.82788   2.82890   2.83209   2.84079   2.84335
 Alpha virt. eigenvalues --    2.84900   2.85053   2.85804   2.86179   2.86604
 Alpha virt. eigenvalues --    2.87060   2.87826   2.88001   2.88245   2.88579
 Alpha virt. eigenvalues --    2.89486   2.89870   2.90440   2.90697   2.91597
 Alpha virt. eigenvalues --    2.92112   2.92443   2.92652   2.93030   2.93680
 Alpha virt. eigenvalues --    2.94358   2.94899   2.95389   2.95731   2.96096
 Alpha virt. eigenvalues --    2.96282   2.96589   2.97646   2.98126   2.98512
 Alpha virt. eigenvalues --    2.98658   2.99264   2.99548   3.00458   3.00812
 Alpha virt. eigenvalues --    3.00936   3.01600   3.01968   3.02256   3.02381
 Alpha virt. eigenvalues --    3.02650   3.02926   3.03993   3.04388   3.04739
 Alpha virt. eigenvalues --    3.05001   3.05400   3.05935   3.06260   3.06411
 Alpha virt. eigenvalues --    3.06867   3.07078   3.07656   3.07921   3.08116
 Alpha virt. eigenvalues --    3.08604   3.09326   3.09597   3.09898   3.10127
 Alpha virt. eigenvalues --    3.10403   3.10676   3.10762   3.11146   3.11706
 Alpha virt. eigenvalues --    3.11815   3.12013   3.12557   3.12775   3.13157
 Alpha virt. eigenvalues --    3.13496   3.13570   3.14242   3.14431   3.14533
 Alpha virt. eigenvalues --    3.15091   3.15191   3.16142   3.16506   3.16916
 Alpha virt. eigenvalues --    3.17070   3.17575   3.17873   3.18043   3.18815
 Alpha virt. eigenvalues --    3.19200   3.19522   3.19653   3.20261   3.20584
 Alpha virt. eigenvalues --    3.20843   3.21425   3.21781   3.22312   3.22650
 Alpha virt. eigenvalues --    3.22817   3.23156   3.23422   3.23967   3.24319
 Alpha virt. eigenvalues --    3.25230   3.25956   3.26322   3.26671   3.27011
 Alpha virt. eigenvalues --    3.27332   3.27726   3.28145   3.28775   3.29257
 Alpha virt. eigenvalues --    3.29890   3.30202   3.30799   3.30868   3.31176
 Alpha virt. eigenvalues --    3.31534   3.32319   3.33044   3.33187   3.33637
 Alpha virt. eigenvalues --    3.34052   3.34335   3.34778   3.34995   3.35234
 Alpha virt. eigenvalues --    3.35777   3.36224   3.36613   3.36796   3.37019
 Alpha virt. eigenvalues --    3.37621   3.37714   3.38307   3.38837   3.39109
 Alpha virt. eigenvalues --    3.39928   3.39931   3.40344   3.40885   3.41168
 Alpha virt. eigenvalues --    3.41500   3.41820   3.42155   3.42690   3.43317
 Alpha virt. eigenvalues --    3.43581   3.44206   3.44368   3.44551   3.44865
 Alpha virt. eigenvalues --    3.45405   3.45698   3.46206   3.46493   3.46732
 Alpha virt. eigenvalues --    3.47026   3.47472   3.48080   3.48270   3.49050
 Alpha virt. eigenvalues --    3.49559   3.49880   3.50049   3.50329   3.50762
 Alpha virt. eigenvalues --    3.51320   3.51513   3.51859   3.52116   3.52714
 Alpha virt. eigenvalues --    3.53183   3.53411   3.53805   3.54060   3.54823
 Alpha virt. eigenvalues --    3.55102   3.55282   3.56045   3.56683   3.56978
 Alpha virt. eigenvalues --    3.57494   3.57782   3.57967   3.58688   3.59629
 Alpha virt. eigenvalues --    3.59797   3.60205   3.60312   3.60810   3.60985
 Alpha virt. eigenvalues --    3.61509   3.62253   3.62740   3.63192   3.63361
 Alpha virt. eigenvalues --    3.63883   3.64698   3.65333   3.65882   3.66420
 Alpha virt. eigenvalues --    3.67202   3.67604   3.68611   3.69127   3.69277
 Alpha virt. eigenvalues --    3.70410   3.70543   3.70927   3.71510   3.72225
 Alpha virt. eigenvalues --    3.72326   3.72852   3.73123   3.73889   3.74150
 Alpha virt. eigenvalues --    3.74444   3.75190   3.75342   3.76169   3.76618
 Alpha virt. eigenvalues --    3.77660   3.77871   3.77996   3.78747   3.79083
 Alpha virt. eigenvalues --    3.79614   3.80006   3.80766   3.81154   3.81920
 Alpha virt. eigenvalues --    3.82330   3.82678   3.83208   3.83549   3.84139
 Alpha virt. eigenvalues --    3.84589   3.85502   3.85788   3.86136   3.87055
 Alpha virt. eigenvalues --    3.87333   3.88105   3.88962   3.89208   3.89312
 Alpha virt. eigenvalues --    3.89650   3.90701   3.91105   3.91640   3.92202
 Alpha virt. eigenvalues --    3.92680   3.93312   3.94102   3.94259   3.94724
 Alpha virt. eigenvalues --    3.95395   3.95806   3.96088   3.96482   3.96991
 Alpha virt. eigenvalues --    3.97497   3.97678   3.97920   3.98676   3.99590
 Alpha virt. eigenvalues --    3.99884   4.00354   4.00687   4.01184   4.01942
 Alpha virt. eigenvalues --    4.02424   4.03246   4.03653   4.03949   4.04309
 Alpha virt. eigenvalues --    4.04742   4.04971   4.05412   4.05676   4.06177
 Alpha virt. eigenvalues --    4.06951   4.07172   4.07956   4.08051   4.08443
 Alpha virt. eigenvalues --    4.09234   4.09664   4.10228   4.10802   4.10867
 Alpha virt. eigenvalues --    4.11259   4.11733   4.11980   4.12391   4.12613
 Alpha virt. eigenvalues --    4.12952   4.13262   4.13538   4.13837   4.14338
 Alpha virt. eigenvalues --    4.14557   4.15235   4.16003   4.16111   4.16541
 Alpha virt. eigenvalues --    4.16944   4.17457   4.17584   4.17999   4.18572
 Alpha virt. eigenvalues --    4.19502   4.19791   4.19957   4.20282   4.20835
 Alpha virt. eigenvalues --    4.21444   4.22011   4.22261   4.22637   4.22730
 Alpha virt. eigenvalues --    4.23168   4.23546   4.24011   4.24446   4.24520
 Alpha virt. eigenvalues --    4.24686   4.25433   4.25790   4.26397   4.26459
 Alpha virt. eigenvalues --    4.26797   4.26997   4.27970   4.28340   4.28854
 Alpha virt. eigenvalues --    4.29435   4.29585   4.29690   4.30122   4.30820
 Alpha virt. eigenvalues --    4.31237   4.31514   4.32286   4.32526   4.32752
 Alpha virt. eigenvalues --    4.33357   4.33521   4.33713   4.34135   4.34507
 Alpha virt. eigenvalues --    4.34768   4.35135   4.35488   4.35961   4.36261
 Alpha virt. eigenvalues --    4.36624   4.37421   4.37717   4.38124   4.38746
 Alpha virt. eigenvalues --    4.38802   4.40149   4.40773   4.41626   4.41859
 Alpha virt. eigenvalues --    4.42561   4.42643   4.43093   4.43875   4.44076
 Alpha virt. eigenvalues --    4.44877   4.45222   4.46082   4.46230   4.47385
 Alpha virt. eigenvalues --    4.47511   4.47852   4.48108   4.49754   4.50510
 Alpha virt. eigenvalues --    4.51102   4.51670   4.52426   4.53537   4.54027
 Alpha virt. eigenvalues --    4.54787   4.55273   4.56031   4.56522   4.57262
 Alpha virt. eigenvalues --    4.57546   4.58123   4.58573   4.59310   4.59825
 Alpha virt. eigenvalues --    4.61200   4.61945   4.63212   4.64384   4.65390
 Alpha virt. eigenvalues --    4.65556   4.67634   4.68379   4.69917   4.70681
 Alpha virt. eigenvalues --    4.71636   4.72747   4.73344   4.74622   4.75158
 Alpha virt. eigenvalues --    4.75527   4.77161   4.77844   4.78183   4.79419
 Alpha virt. eigenvalues --    4.80369   4.80667   4.81826   4.82374   4.82643
 Alpha virt. eigenvalues --    4.83139   4.84095   4.84205   4.84589   4.85132
 Alpha virt. eigenvalues --    4.86140   4.86286   4.86534   4.86909   4.87539
 Alpha virt. eigenvalues --    4.87690   4.88285   4.88909   4.89410   4.89839
 Alpha virt. eigenvalues --    4.90048   4.90966   4.91272   4.91594   4.92030
 Alpha virt. eigenvalues --    4.92762   4.93573   4.94004   4.94424   4.95107
 Alpha virt. eigenvalues --    4.95754   4.96236   4.96587   4.96772   4.98041
 Alpha virt. eigenvalues --    4.98744   4.99957   5.00496   5.02087   5.02853
 Alpha virt. eigenvalues --    5.03843   5.04080   5.05093   5.06542   5.07544
 Alpha virt. eigenvalues --    5.08370   5.08509   5.09138   5.09768   5.10229
 Alpha virt. eigenvalues --    5.10778   5.12295   5.13477   5.13865   5.14060
 Alpha virt. eigenvalues --    5.14758   5.15714   5.16239   5.16793   5.17828
 Alpha virt. eigenvalues --    5.18841   5.19245   5.19573   5.20776   5.21060
 Alpha virt. eigenvalues --    5.21232   5.21674   5.22382   5.22750   5.24014
 Alpha virt. eigenvalues --    5.24323   5.24545   5.25097   5.25745   5.26182
 Alpha virt. eigenvalues --    5.27090   5.27535   5.27998   5.28448   5.28638
 Alpha virt. eigenvalues --    5.30027   5.30289   5.30726   5.31192   5.31793
 Alpha virt. eigenvalues --    5.32526   5.32954   5.34573   5.34826   5.35665
 Alpha virt. eigenvalues --    5.36048   5.36495   5.36914   5.37590   5.37839
 Alpha virt. eigenvalues --    5.38037   5.39040   5.39290   5.39496   5.40326
 Alpha virt. eigenvalues --    5.40502   5.41300   5.41338   5.42494   5.42790
 Alpha virt. eigenvalues --    5.43512   5.43628   5.43917   5.44865   5.45582
 Alpha virt. eigenvalues --    5.46085   5.46874   5.47124   5.48190   5.48616
 Alpha virt. eigenvalues --    5.49405   5.50081   5.50541   5.50905   5.51304
 Alpha virt. eigenvalues --    5.51707   5.51931   5.52662   5.53298   5.54529
 Alpha virt. eigenvalues --    5.55306   5.55856   5.56339   5.56547   5.57914
 Alpha virt. eigenvalues --    5.58206   5.58306   5.58914   5.59527   5.61427
 Alpha virt. eigenvalues --    5.61620   5.62496   5.64983   5.65651   5.68080
 Alpha virt. eigenvalues --    5.70317   5.73790   5.77912   5.78541   5.86202
 Alpha virt. eigenvalues --    5.88025   5.90849   5.92888   5.95769   5.98933
 Alpha virt. eigenvalues --    5.99273   6.01147   6.01499   6.02575   6.03082
 Alpha virt. eigenvalues --    6.03283   6.03506   6.04372   6.05090   6.05179
 Alpha virt. eigenvalues --    6.06395   6.06708   6.08191   6.09289   6.10564
 Alpha virt. eigenvalues --    6.11021   6.12699   6.12899   6.14235   6.16175
 Alpha virt. eigenvalues --    6.17689   6.21781   6.24619   6.25674   6.27896
 Alpha virt. eigenvalues --    6.31163   6.34111   6.35094   6.39268   6.42211
 Alpha virt. eigenvalues --    6.50758   6.52812   6.54873   6.58849   6.61803
 Alpha virt. eigenvalues --    6.64965   6.70674   6.73669   6.75477   6.78029
 Alpha virt. eigenvalues --    6.80400   6.82466   6.83903   6.86582   6.87227
 Alpha virt. eigenvalues --    6.94302   7.07999   7.18141   7.24504   7.38584
 Alpha virt. eigenvalues --    7.41007   8.19946   9.80456   9.88990  10.09329
 Alpha virt. eigenvalues --   10.69276  12.14482  12.27159  12.35305  12.52170
 Alpha virt. eigenvalues --   12.85350  12.94809  13.03098  13.22646  13.30228
 Alpha virt. eigenvalues --   13.46662  13.53483  13.63917  13.68612  13.74396
 Alpha virt. eigenvalues --   13.84235  13.85663  13.90083  13.95440  13.99939
 Alpha virt. eigenvalues --   15.08896  35.57498  35.66343  35.76963  46.31030
          Condensed to atoms (all electrons):
 Mulliken charges:
               1
     1  N   -0.162089
     2  C    0.086145
     3  C    0.076242
     4  C   -0.152925
     5  C   -0.132372
     6  C   -0.137587
     7  C   -0.094625
     8  H    0.162264
     9  H    0.163233
    10  H    0.163101
    11  C   -0.234567
    12  N   -0.217410
    13  H    0.126540
    14  H    0.167956
    15  H    0.175494
    16  P    0.173832
    17  H    0.148998
    18  Ru   0.598197
    19  C   -0.096914
    20  C   -0.005559
    21  C   -0.110062
    22  C   -0.009125
    23  C   -0.362829
    24  C   -0.341440
    25  C   -0.331559
    26  C   -0.351654
    27  C   -0.334673
    28  C   -0.350074
    29  C   -0.126805
    30  O   -0.297100
    31  H    0.141630
    32  C   -0.327855
    33  H    0.133121
    34  H    0.137133
    35  C   -0.357532
    36  H    0.111815
    37  O   -0.698178
    38  H    0.259517
    39  O   -0.703434
    40  H    0.288886
    41  H    0.134781
    42  H    0.106565
    43  H    0.110942
    44  H    0.115164
    45  H    0.109116
    46  H    0.110346
    47  H    0.105254
    48  H    0.115943
    49  H    0.129851
    50  H    0.107588
    51  H    0.120548
    52  H    0.122289
    53  H    0.108278
    54  H    0.123487
    55  H    0.114410
    56  H    0.119646
    57  H    0.108936
    58  H    0.118806
    59  H    0.120712
    60  H    0.133534
    61  H    0.107821
    62  H    0.113415
    63  H    0.146524
    64  H    0.118307
 Sum of Mulliken charges =  -0.00000
 Mulliken charges with hydrogens summed into heavy atoms:
               1
     1  N   -0.162089
     2  C    0.086145
     3  C    0.076242
     4  C    0.009339
     5  C    0.030861
     6  C    0.025515
     7  C    0.199871
    11  C    0.089926
    12  N   -0.217410
    16  P    0.173832
    18  Ru   0.598197
    19  C    0.177837
    20  C   -0.005559
    21  C    0.138886
    22  C   -0.009125
    23  C   -0.011782
    24  C    0.008984
    25  C    0.014616
    26  C    0.026593
    27  C    0.012715
    28  C    0.011993
    29  C   -0.126805
    30  O   -0.297100
    32  C    0.006771
    35  C   -0.005245
    37  O   -0.438661
    39  O   -0.414548
 Electronic spatial extent (au):  <R**2>=           9705.5792
 Charge=             -0.0000 electrons
 Dipole moment (field-independent basis, Debye):
    X=              1.1993    Y=              9.8780    Z=              1.7069  Tot=             10.0959
 Quadrupole moment (field-independent basis, Debye-Ang):
   XX=           -151.9225   YY=           -177.4986   ZZ=           -203.4336
   XY=             -7.6400   XZ=             -5.0155   YZ=             -3.6202
 Traceless Quadrupole moment (field-independent basis, Debye-Ang):
   XX=             25.6957   YY=              0.1197   ZZ=            -25.8154
   XY=             -7.6400   XZ=             -5.0155   YZ=             -3.6202
 Octapole moment (field-independent basis, Debye-Ang**2):
  XXX=            -60.8340  YYY=             85.9848  ZZZ=             -8.7762  XYY=            -17.8592
  XXY=              7.4724  XXZ=             11.5668  XZZ=              4.8217  YZZ=             -1.4030
  YYZ=             -6.7943  XYZ=             -3.0555
 Hexadecapole moment (field-independent basis, Debye-Ang**3):
 XXXX=          -6932.5639 YYYY=          -3289.6479 ZZZZ=          -2462.2182 XXXY=            -48.6455
 XXXZ=            -33.2879 YYYX=           -134.1159 YYYZ=           -153.2901 ZZZX=             11.9092
 ZZZY=             48.8144 XXYY=          -1701.9154 XXZZ=          -1552.6553 YYZZ=           -996.9657
 XXYZ=             25.9727 YYXZ=            -27.8262 ZZXY=             27.3183
 N-N= 3.496791264099D+03 E-N=-1.060964868001D+04  KE= 1.485071065672D+03
 1\1\GINC-NODE276\SP\RPBE1PBE\GenECP\C20H37N2O3P1Ru1\JS1212\11-Oct-2019
 \0\\# genecp pbe1pbe EmpiricalDispersion=GD3BJ scrf=(SMD,solvent=water
 ) geom=allcheck\\Title Card Required\\0,1\N,0,-0.7103586598,1.41386589
 36,-0.0573020856\C,0,-1.930414302,1.8808839061,0.2627802141\C,0,0.1991
 761598,2.2047100174,-0.6601932211\C,0,-2.2710535554,3.2103290961,0.051
 1196334\C,0,-1.3202204587,4.0630669224,-0.5060472574\C,0,-0.0796924817
 ,3.5547038624,-0.8732391261\C,0,-2.8446624985,0.8565594112,0.863088412
 1\H,0,-3.2673211898,3.5660583163,0.3154492244\H,0,-1.5552362623,5.1153
 966463,-0.6751335434\H,0,0.6702711501,4.1907102343,-1.3446154101\C,0,1
 .4580827211,1.5437445969,-1.1278315352\N,0,-2.7248314753,-0.4458490487
 ,0.1814321959\H,0,-3.8846556812,1.2259674467,0.8714416006\H,0,-2.54705
 06275,0.7015637772,1.9130332925\H,0,1.2390991707,1.1564148959,-2.13813
 62981\P,0,1.789237894,-0.0257467819,-0.1707292555\H,0,2.3001250498,2.2
 485099419,-1.1763669325\Ru,0,-0.4008336471,-0.6118992662,0.0859203786\
 C,0,-3.2882435927,-0.3869486441,-1.185462885\C,0,2.9655536656,-1.00885
 94062,-1.300071322\C,0,-3.3856929928,-1.4714690845,1.0198863898\C,0,2.
 7286197897,0.5866088635,1.3710430313\C,0,2.1040257934,-1.7558235467,-2
 .3211614054\C,0,3.7160943276,-2.0545096106,-0.4733835022\C,0,3.9558465
 263,-0.1169121083,-2.0521085897\C,0,1.8763302673,1.6863725748,2.016274
 9875\C,0,4.0978332559,1.184893149,1.0448687546\C,0,2.9003563251,-0.549
 3972678,2.3839629444\C,0,-0.3900404705,-0.8278936931,1.9045038816\O,0,
 -0.4507099457,-1.0140112306,3.0563170899\H,0,-2.695068182,0.3507827229
 ,-1.7410416515\C,0,-4.7796656098,-0.1074636218,-1.2874231943\H,0,-3.04
 28711736,-1.3439224308,-1.6613345837\H,0,-2.8475773525,-1.4810112287,1
 .9789590929\C,0,-3.359704283,-2.8567685277,0.4101332754\H,0,-4.4232144
 703,-1.1506920996,1.2423924387\O,0,-0.3318179868,-2.6287659702,-0.3196
 849311\H,0,0.2155440134,-3.1006745459,0.3181695539\O,0,-0.5462891117,-
 0.4188943149,-1.9592119628\H,0,-0.5313752414,-1.3467462079,-2.23257561
 81\H,0,-2.3312988541,-3.0938451462,0.0849005961\H,0,-4.0459914365,-2.9
 491527496,-0.4452770553\H,0,-3.6810597782,-3.586955902,1.1681868065\H,
 0,-5.0613929724,-0.1012676984,-2.3511311979\H,0,-5.0645274426,0.873954
 146,-0.8771682579\H,0,-5.3939429165,-0.8743861281,-0.7915744073\H,0,2.
 7717395287,-2.3696834446,-2.9496803066\H,0,1.5447218402,-1.0650370296,
 -2.9653966517\H,0,1.3708321762,-2.4012111034,-1.8127375179\H,0,4.24302
 59214,-2.7342360432,-1.1630533202\H,0,3.0252393568,-2.6657926475,0.126
 9200781\H,0,4.4705099694,-1.6154855216,0.1937146198\H,0,4.5867689974,-
 0.7582864109,-2.6903511286\H,0,4.6244857204,0.452325546,-1.3944543167\
 H,0,3.4403207913,0.5885367826,-2.7198807884\H,0,4.8145343573,0.4305257
 004,0.6941248517\H,0,4.5171189456,1.631196341,1.9621838509\H,0,4.03891
 37635,1.9852403614,0.2917116893\H,0,3.578053402,-1.3333473408,2.026124
 6386\H,0,1.9441443161,-1.0155104394,2.6488784257\H,0,3.3340104137,-0.1
 346887054,3.3094308291\H,0,2.3487171007,1.9837788437,2.9667687399\H,0,
 0.856101689,1.3470713286,2.238178495\H,0,1.8128702529,2.5858736223,1.3
 86279247\\Version=ES64L-G16RevA.03\State=1-A\HF=-1555.0071785\RMSD=1.5
 17e-09\Dipole=0.4863319,3.8871396,0.6562069\Quadrupole=19.0414676,0.10
 56206,-19.1470882,-5.7622147,-3.8536911,-2.7268331\PG=C01 [X(C20H37N2O
 3P1Ru1)]\\@


 EXPERIENCE IS THE FRUIT OF THE TREE OF ERRORS.
 Job cpu time:       0 days 14 hours 49 minutes 19.6 seconds.
 Elapsed time:       0 days  0 hours 44 minutes 37.1 seconds.
 File lengths (MBytes):  RWF=   1185 Int=      0 D2E=      0 Chk=    127 Scr=      1
 Normal termination of Gaussian 16 at Fri Oct 11 14:57:49 2019.
