 Entering Gaussian System, Link 0=g16
 Initial command:
 /cluster/chemistry/gaussian/g16/l1.exe "/scratch/js1212.769347/scratch/Gau-15243.inp" -scrdir="/scratch/js1212.769347/scratch/"
 Entering Link 1 = /cluster/chemistry/gaussian/g16/l1.exe PID=     15244.
  
 Copyright (c) 1988,1990,1992,1993,1995,1998,2003,2009,2016,
            Gaussian, Inc.  All Rights Reserved.
  
 This is part of the Gaussian(R) 16 program.  It is based on
 the Gaussian(R) 09 system (copyright 2009, Gaussian, Inc.),
 the Gaussian(R) 03 system (copyright 2003, Gaussian, Inc.),
 the Gaussian(R) 98 system (copyright 1998, Gaussian, Inc.),
 the Gaussian(R) 94 system (copyright 1995, Gaussian, Inc.),
 the Gaussian 92(TM) system (copyright 1992, Gaussian, Inc.),
 the Gaussian 90(TM) system (copyright 1990, Gaussian, Inc.),
 the Gaussian 88(TM) system (copyright 1988, Gaussian, Inc.),
 the Gaussian 86(TM) system (copyright 1986, Carnegie Mellon
 University), and the Gaussian 82(TM) system (copyright 1983,
 Carnegie Mellon University). Gaussian is a federally registered
 trademark of Gaussian, Inc.
  
 This software contains proprietary and confidential information,
 including trade secrets, belonging to Gaussian, Inc.
  
 This software is provided under written license and may be
 used, copied, transmitted, or stored only in accord with that
 written license.
  
 The following legend is applicable only to US Government
 contracts under FAR:
  
                    RESTRICTED RIGHTS LEGEND
  
 Use, reproduction and disclosure by the US Government is
 subject to restrictions as set forth in subparagraphs (a)
 and (c) of the Commercial Computer Software - Restricted
 Rights clause in FAR 52.227-19.
  
 Gaussian, Inc.
 340 Quinnipiac St., Bldg. 40, Wallingford CT 06492
  
  
 ---------------------------------------------------------------
 Warning -- This program may not be used in any manner that
 competes with the business of Gaussian, Inc. or will provide
 assistance to any competitor of Gaussian, Inc.  The licensee
 of this program is prohibited from giving any competitor of
 Gaussian, Inc. access to this program.  By using this program,
 the user acknowledges that Gaussian, Inc. is engaged in the
 business of creating and licensing software in the field of
 computational chemistry and represents and warrants to the
 licensee that it is not a competitor of Gaussian, Inc. and that
 it will not use this program in any manner prohibited above.
 ---------------------------------------------------------------
  

 Cite this work as:
 Gaussian 16, Revision A.03,
 M. J. Frisch, G. W. Trucks, H. B. Schlegel, G. E. Scuseria, 
 M. A. Robb, J. R. Cheeseman, G. Scalmani, V. Barone, 
 G. A. Petersson, H. Nakatsuji, X. Li, M. Caricato, A. V. Marenich, 
 J. Bloino, B. G. Janesko, R. Gomperts, B. Mennucci, H. P. Hratchian, 
 J. V. Ortiz, A. F. Izmaylov, J. L. Sonnenberg, D. Williams-Young, 
 F. Ding, F. Lipparini, F. Egidi, J. Goings, B. Peng, A. Petrone, 
 T. Henderson, D. Ranasinghe, V. G. Zakrzewski, J. Gao, N. Rega, 
 G. Zheng, W. Liang, M. Hada, M. Ehara, K. Toyota, R. Fukuda, 
 J. Hasegawa, M. Ishida, T. Nakajima, Y. Honda, O. Kitao, H. Nakai, 
 T. Vreven, K. Throssell, J. A. Montgomery, Jr., J. E. Peralta, 
 F. Ogliaro, M. J. Bearpark, J. J. Heyd, E. N. Brothers, K. N. Kudin, 
 V. N. Staroverov, T. A. Keith, R. Kobayashi, J. Normand, 
 K. Raghavachari, A. P. Rendell, J. C. Burant, S. S. Iyengar, 
 J. Tomasi, M. Cossi, J. M. Millam, M. Klene, C. Adamo, R. Cammi, 
 J. W. Ochterski, R. L. Martin, K. Morokuma, O. Farkas, 
 J. B. Foresman, and D. J. Fox, Gaussian, Inc., Wallingford CT, 2016.
 
 ******************************************
 Gaussian 16:  ES64L-G16RevA.03 25-Dec-2016
                20-Aug-2020 
 ******************************************
 %rwf=/scratch/js1212.769347/3-Full-GP-Disp-TD-SMD-NStates25.rwf
 %nosave
 %nprocshared=16
 Will use up to   16 processors via shared memory.
 %mem=3000MB
 %oldchk=/data/js1212/191014_g16/3-Full-GPOF-Disp.chk
 %chk=/scratch/js1212.769347/3-Full-GP-Disp-TD-SMD-NStates25.chk
 Copying data from "/data/js1212/191014_g16/3-Full-GPOF-Disp.chk" to current chk file "/scratch/js1212.769347/3-Full-GP-Disp-TD-SMD-NStates25.chk"
 IOpt=  2 FromEx=T IUOpen= 4 IOptOp= 5 NList=   0 IFRang= 0 IUIn= 4 IUOut= 2.
 ----------------------------------------------------------------------
 # genecp pbe1pbe EmpiricalDispersion=GD3BJ scrf=(SMD,solvent=water) td
 =nstates=25 geom=allcheck
 ----------------------------------------------------------------------
 1/29=7,38=1,172=1/1;
 2/12=2,40=1/2;
 3/5=7,11=9,14=-4,16=1,17=8,25=1,30=1,70=32201,72=1,74=-13,124=41/1,2,3,8;
 4//1;
 5/5=2,38=5,53=1/2;
 8/6=1,10=1,108=25/1;
 9/41=25,42=1,70=2/14;
 6/7=2,8=2,9=2,10=2/1;
 99/5=1,9=1/99;
 Structure from the checkpoint file:  "/scratch/js1212.769347/3-Full-GP-Disp-TD-SMD-NStates25.chk"
 -------------------
 Title Card Required
 -------------------
 Charge =  0 Multiplicity = 1
 Redundant internal coordinates found in file.  (old form).
 N,0,-0.7103586598,1.4138658936,-0.0573020856
 C,0,-1.930414302,1.8808839061,0.2627802141
 C,0,0.1991761598,2.2047100174,-0.6601932211
 C,0,-2.2710535554,3.2103290961,0.0511196334
 C,0,-1.3202204587,4.0630669224,-0.5060472574
 C,0,-0.0796924817,3.5547038624,-0.8732391261
 C,0,-2.8446624985,0.8565594112,0.8630884121
 H,0,-3.2673211898,3.5660583163,0.3154492244
 H,0,-1.5552362623,5.1153966463,-0.6751335434
 H,0,0.6702711501,4.1907102343,-1.3446154101
 C,0,1.4580827211,1.5437445969,-1.1278315352
 N,0,-2.7248314753,-0.4458490487,0.1814321959
 H,0,-3.8846556812,1.2259674467,0.8714416006
 H,0,-2.5470506275,0.7015637772,1.9130332925
 H,0,1.2390991707,1.1564148959,-2.1381362981
 P,0,1.789237894,-0.0257467819,-0.1707292555
 H,0,2.3001250498,2.2485099419,-1.1763669325
 Ru,0,-0.4008336471,-0.6118992662,0.0859203786
 C,0,-3.2882435927,-0.3869486441,-1.185462885
 C,0,2.9655536656,-1.0088594062,-1.300071322
 C,0,-3.3856929928,-1.4714690845,1.0198863898
 C,0,2.7286197897,0.5866088635,1.3710430313
 C,0,2.1040257934,-1.7558235467,-2.3211614054
 C,0,3.7160943276,-2.0545096106,-0.4733835022
 C,0,3.9558465263,-0.1169121083,-2.0521085897
 C,0,1.8763302673,1.6863725748,2.0162749875
 C,0,4.0978332559,1.184893149,1.0448687546
 C,0,2.9003563251,-0.5493972678,2.3839629444
 C,0,-0.3900404705,-0.8278936931,1.9045038816
 O,0,-0.4507099457,-1.0140112306,3.0563170899
 H,0,-2.695068182,0.3507827229,-1.7410416515
 C,0,-4.7796656098,-0.1074636218,-1.2874231943
 H,0,-3.0428711736,-1.3439224308,-1.6613345837
 H,0,-2.8475773525,-1.4810112287,1.9789590929
 C,0,-3.359704283,-2.8567685277,0.4101332754
 H,0,-4.4232144703,-1.1506920996,1.2423924387
 O,0,-0.3318179868,-2.6287659702,-0.3196849311
 H,0,0.2155440134,-3.1006745459,0.3181695539
 O,0,-0.5462891117,-0.4188943149,-1.9592119628
 H,0,-0.5313752414,-1.3467462079,-2.2325756181
 H,0,-2.3312988541,-3.0938451462,0.0849005961
 H,0,-4.0459914365,-2.9491527496,-0.4452770553
 H,0,-3.6810597782,-3.586955902,1.1681868065
 H,0,-5.0613929724,-0.1012676984,-2.3511311979
 H,0,-5.0645274426,0.873954146,-0.8771682579
 H,0,-5.3939429165,-0.8743861281,-0.7915744073
 H,0,2.7717395287,-2.3696834446,-2.9496803066
 H,0,1.5447218402,-1.0650370296,-2.9653966517
 H,0,1.3708321762,-2.4012111034,-1.8127375179
 H,0,4.2430259214,-2.7342360432,-1.1630533202
 H,0,3.0252393568,-2.6657926475,0.1269200781
 H,0,4.4705099694,-1.6154855216,0.1937146198
 H,0,4.5867689974,-0.7582864109,-2.6903511286
 H,0,4.6244857204,0.452325546,-1.3944543167
 H,0,3.4403207913,0.5885367826,-2.7198807884
 H,0,4.8145343573,0.4305257004,0.6941248517
 H,0,4.5171189456,1.631196341,1.9621838509
 H,0,4.0389137635,1.9852403614,0.2917116893
 H,0,3.578053402,-1.3333473408,2.0261246386
 H,0,1.9441443161,-1.0155104394,2.6488784257
 H,0,3.3340104137,-0.1346887054,3.3094308291
 H,0,2.3487171007,1.9837788437,2.9667687399
 H,0,0.856101689,1.3470713286,2.238178495
 H,0,1.8128702529,2.5858736223,1.386279247
 Recover connectivity data from disk.
                           ----------------------------
                           !    Current Parameters    !
                           ! (Angstroms and Degrees)  !
 --------------------------                            --------------------------
 ! Name  Definition              Value                                          !
 --------------------------------------------------------------------------------
 ! R1    R(1,2)                  1.345                                          !
 ! R2    R(1,3)                  1.3477                                         !
 ! R3    R(1,18)                 2.0543                                         !
 ! R4    R(2,4)                  1.3886                                         !
 ! R5    R(2,7)                  1.4985                                         !
 ! R6    R(3,6)                  1.3949                                         !
 ! R7    R(3,11)                 1.4968                                         !
 ! R8    R(4,5)                  1.3934                                         !
 ! R9    R(4,8)                  1.0904                                         !
 ! R10   R(5,6)                  1.39                                           !
 ! R11   R(5,9)                  1.0914                                         !
 ! R12   R(6,10)                 1.0905                                         !
 ! R13   R(7,12)                 1.4749                                         !
 ! R14   R(7,13)                 1.1037                                         !
 ! R15   R(7,14)                 1.1023                                         !
 ! R16   R(11,15)                1.1039                                         !
 ! R17   R(11,16)                1.8679                                         !
 ! R18   R(11,17)                1.0991                                         !
 ! R19   R(12,19)                1.4796                                         !
 ! R20   R(12,21)                1.4804                                         !
 ! R21   R(16,18)                2.2816                                         !
 ! R22   R(16,20)                1.9041                                         !
 ! R23   R(16,22)                1.9064                                         !
 ! R24   R(18,29)                1.8314                                         !
 ! R25   R(18,37)                2.0584                                         !
 ! R26   R(18,39)                2.0594                                         !
 ! R27   R(19,31)                1.0976                                         !
 ! R28   R(19,32)                1.5208                                         !
 ! R29   R(19,33)                1.0966                                         !
 ! R30   R(20,23)                1.5306                                         !
 ! R31   R(20,24)                1.5297                                         !
 ! R32   R(20,25)                1.5303                                         !
 ! R33   R(21,34)                1.0998                                         !
 ! R34   R(21,35)                1.5138                                         !
 ! R35   R(21,36)                1.1085                                         !
 ! R36   R(22,26)                1.5337                                         !
 ! R37   R(22,27)                1.5294                                         !
 ! R38   R(22,28)                1.5317                                         !
 ! R39   R(23,47)                1.1035                                         !
 ! R40   R(23,48)                1.0977                                         !
 ! R41   R(23,49)                1.1012                                         !
 ! R42   R(24,50)                1.1024                                         !
 ! R43   R(24,51)                1.1006                                         !
 ! R44   R(24,52)                1.0986                                         !
 ! R45   R(25,53)                1.1031                                         !
 ! R46   R(25,54)                1.0971                                         !
 ! R47   R(25,55)                1.0997                                         !
 ! R48   R(26,62)                1.1023                                         !
 ! R49   R(26,63)                1.0978                                         !
 ! R50   R(26,64)                1.1                                            !
 ! R51   R(27,56)                1.0981                                         !
 ! R52   R(27,57)                1.1029                                         !
 ! R53   R(27,58)                1.1006                                         !
 ! R54   R(28,59)                1.0963                                         !
 ! R55   R(28,60)                1.0963                                         !
 ! R56   R(28,61)                1.103                                          !
 ! R57   R(29,30)                1.1683                                         !
 ! R58   R(32,44)                1.1004                                         !
 ! R59   R(32,45)                1.1012                                         !
 ! R60   R(32,46)                1.1006                                         !
 ! R61   R(35,41)                1.1044                                         !
 ! R62   R(35,42)                1.1006                                         !
 ! R63   R(35,43)                1.1005                                         !
 ! R64   R(37,38)                0.9639                                         !
 ! R65   R(39,40)                0.9674                                         !
 ! A1    A(2,1,3)              120.9907                                         !
 ! A2    A(2,1,18)             117.5474                                         !
 ! A3    A(3,1,18)             120.5431                                         !
 ! A4    A(1,2,4)              121.2428                                         !
 ! A5    A(1,2,7)              114.2936                                         !
 ! A6    A(4,2,7)              124.4607                                         !
 ! A7    A(1,3,6)              120.0896                                         !
 ! A8    A(1,3,11)             116.6327                                         !
 ! A9    A(6,3,11)             123.2171                                         !
 ! A10   A(2,4,5)              118.6492                                         !
 ! A11   A(2,4,8)              119.9681                                         !
 ! A12   A(5,4,8)              121.382                                          !
 ! A13   A(4,5,6)              119.3925                                         !
 ! A14   A(4,5,9)              120.335                                          !
 ! A15   A(6,5,9)              120.256                                          !
 ! A16   A(3,6,5)              119.4744                                         !
 ! A17   A(3,6,10)             119.538                                          !
 ! A18   A(5,6,10)             120.9745                                         !
 ! A19   A(2,7,12)             111.6485                                         !
 ! A20   A(2,7,13)             110.4349                                         !
 ! A21   A(2,7,14)             108.2392                                         !
 ! A22   A(12,7,13)            112.0627                                         !
 ! A23   A(12,7,14)            107.1054                                         !
 ! A24   A(13,7,14)            107.1141                                         !
 ! A25   A(3,11,15)            105.9037                                         !
 ! A26   A(3,11,16)            111.1043                                         !
 ! A27   A(3,11,17)            112.0237                                         !
 ! A28   A(15,11,16)           102.0809                                         !
 ! A29   A(15,11,17)           109.6654                                         !
 ! A30   A(16,11,17)           115.1871                                         !
 ! A31   A(7,12,19)            111.1538                                         !
 ! A32   A(7,12,21)            108.2851                                         !
 ! A33   A(19,12,21)           112.3838                                         !
 ! A34   A(11,16,18)            95.9306                                         !
 ! A35   A(11,16,20)           103.8539                                         !
 ! A36   A(11,16,22)           103.4062                                         !
 ! A37   A(18,16,20)           121.807                                          !
 ! A38   A(18,16,22)           117.6791                                         !
 ! A39   A(20,16,22)           109.9436                                         !
 ! A40   A(1,18,16)             83.3069                                         !
 ! A41   A(1,18,29)            100.7441                                         !
 ! A42   A(1,18,37)            163.243                                          !
 ! A43   A(1,18,39)             80.0784                                         !
 ! A44   A(16,18,29)            97.8361                                         !
 ! A45   A(16,18,37)           101.3831                                         !
 ! A46   A(16,18,39)            86.1016                                         !
 ! A47   A(29,18,37)            94.5835                                         !
 ! A48   A(37,18,39)            84.1751                                         !
 ! A49   A(12,19,31)           106.7727                                         !
 ! A50   A(12,19,32)           116.2746                                         !
 ! A51   A(12,19,33)           106.3173                                         !
 ! A52   A(31,19,32)           111.8714                                         !
 ! A53   A(31,19,33)           104.2393                                         !
 ! A54   A(32,19,33)           110.5317                                         !
 ! A55   A(16,20,23)           107.4522                                         !
 ! A56   A(16,20,24)           109.6031                                         !
 ! A57   A(16,20,25)           112.974                                          !
 ! A58   A(23,20,24)           107.6432                                         !
 ! A59   A(23,20,25)           108.7141                                         !
 ! A60   A(24,20,25)           110.2725                                         !
 ! A61   A(12,21,34)           106.3495                                         !
 ! A62   A(12,21,35)           113.4654                                         !
 ! A63   A(12,21,36)           109.3302                                         !
 ! A64   A(34,21,35)           109.5684                                         !
 ! A65   A(34,21,36)           106.5841                                         !
 ! A66   A(35,21,36)           111.2064                                         !
 ! A67   A(16,22,26)           107.2617                                         !
 ! A68   A(16,22,27)           113.2229                                         !
 ! A69   A(16,22,28)           110.5999                                         !
 ! A70   A(26,22,27)           107.8617                                         !
 ! A71   A(26,22,28)           108.4166                                         !
 ! A72   A(27,22,28)           109.317                                          !
 ! A73   A(20,23,47)           108.111                                          !
 ! A74   A(20,23,48)           111.789                                          !
 ! A75   A(20,23,49)           110.6572                                         !
 ! A76   A(47,23,48)           108.9104                                         !
 ! A77   A(47,23,49)           109.8664                                         !
 ! A78   A(48,23,49)           107.4898                                         !
 ! A79   A(20,24,50)           108.5355                                         !
 ! A80   A(20,24,51)           111.4958                                         !
 ! A81   A(20,24,52)           113.0737                                         !
 ! A82   A(50,24,51)           107.3855                                         !
 ! A83   A(50,24,52)           107.3404                                         !
 ! A84   A(51,24,52)           108.7722                                         !
 ! A85   A(20,25,53)           108.3958                                         !
 ! A86   A(20,25,54)           113.7177                                         !
 ! A87   A(20,25,55)           111.6507                                         !
 ! A88   A(53,25,54)           107.4538                                         !
 ! A89   A(53,25,55)           106.8445                                         !
 ! A90   A(54,25,55)           108.4737                                         !
 ! A91   A(22,26,62)           108.5476                                         !
 ! A92   A(22,26,63)           112.3241                                         !
 ! A93   A(22,26,64)           112.1775                                         !
 ! A94   A(62,26,63)           107.8997                                         !
 ! A95   A(62,26,64)           107.3342                                         !
 ! A96   A(63,26,64)           108.3535                                         !
 ! A97   A(22,27,56)           112.5635                                         !
 ! A98   A(22,27,57)           108.7389                                         !
 ! A99   A(22,27,58)           112.4881                                         !
 ! A100  A(56,27,57)           107.1895                                         !
 ! A101  A(56,27,58)           108.4177                                         !
 ! A102  A(57,27,58)           107.1724                                         !
 ! A103  A(22,28,59)           112.5702                                         !
 ! A104  A(22,28,60)           112.1703                                         !
 ! A105  A(22,28,61)           108.6696                                         !
 ! A106  A(59,28,60)           108.302                                          !
 ! A107  A(59,28,61)           107.4395                                         !
 ! A108  A(60,28,61)           107.4604                                         !
 ! A109  A(19,32,44)           108.4767                                         !
 ! A110  A(19,32,45)           113.1097                                         !
 ! A111  A(19,32,46)           112.8969                                         !
 ! A112  A(44,32,45)           106.7911                                         !
 ! A113  A(44,32,46)           107.2491                                         !
 ! A114  A(45,32,46)           107.9867                                         !
 ! A115  A(21,35,41)           109.3335                                         !
 ! A116  A(21,35,42)           112.2834                                         !
 ! A117  A(21,35,43)           108.9485                                         !
 ! A118  A(41,35,42)           109.4978                                         !
 ! A119  A(41,35,43)           109.4115                                         !
 ! A120  A(42,35,43)           107.3136                                         !
 ! A121  A(18,37,38)           111.613                                          !
 ! A122  A(18,39,40)           100.9321                                         !
 ! A123  L(29,18,39,1,-1)      180.8225                                         !
 ! A124  L(18,29,30,13,-1)     178.2164                                         !
 ! A125  L(29,18,39,1,-2)      183.9387                                         !
 ! A126  L(18,29,30,13,-2)     176.1445                                         !
 ! D1    D(3,1,2,4)             -3.5609                                         !
 ! D2    D(3,1,2,7)            177.0323                                         !
 ! D3    D(18,1,2,4)          -172.6482                                         !
 ! D4    D(18,1,2,7)             7.945                                          !
 ! D5    D(2,1,3,6)              4.7353                                         !
 ! D6    D(2,1,3,11)          -172.525                                          !
 ! D7    D(18,1,3,6)           173.4969                                         !
 ! D8    D(18,1,3,11)           -3.7634                                         !
 ! D9    D(2,1,18,16)         -168.2571                                         !
 ! D10   D(2,1,18,29)          -71.5117                                         !
 ! D11   D(2,1,18,37)           84.3141                                         !
 ! D12   D(2,1,18,39)          104.5496                                         !
 ! D13   D(3,1,18,16)           22.6043                                         !
 ! D14   D(3,1,18,29)          119.3497                                         !
 ! D15   D(3,1,18,37)          -84.8245                                         !
 ! D16   D(3,1,18,39)          -64.589                                          !
 ! D17   D(1,2,4,5)              0.0969                                         !
 ! D18   D(1,2,4,8)            179.8069                                         !
 ! D19   D(7,2,4,5)            179.4411                                         !
 ! D20   D(7,2,4,8)             -0.8489                                         !
 ! D21   D(1,2,7,12)           -40.7193                                         !
 ! D22   D(1,2,7,13)          -166.1101                                         !
 ! D23   D(1,2,7,14)            76.9256                                         !
 ! D24   D(4,2,7,12)           139.8958                                         !
 ! D25   D(4,2,7,13)            14.505                                          !
 ! D26   D(4,2,7,14)          -102.4593                                         !
 ! D27   D(1,3,6,5)             -2.4703                                         !
 ! D28   D(1,3,6,10)           178.8317                                         !
 ! D29   D(11,3,6,5)           174.6022                                         !
 ! D30   D(11,3,6,10)           -4.0958                                         !
 ! D31   D(1,3,11,15)           86.4527                                         !
 ! D32   D(1,3,11,16)          -23.6216                                         !
 ! D33   D(1,3,11,17)         -154.0278                                         !
 ! D34   D(6,3,11,15)          -90.7137                                         !
 ! D35   D(6,3,11,16)          159.212                                          !
 ! D36   D(6,3,11,17)           28.8058                                         !
 ! D37   D(2,4,5,6)              2.0797                                         !
 ! D38   D(2,4,5,9)           -179.3913                                         !
 ! D39   D(8,4,5,6)           -177.626                                          !
 ! D40   D(8,4,5,9)              0.903                                          !
 ! D41   D(4,5,6,3)             -0.9199                                         !
 ! D42   D(4,5,6,10)           177.7589                                         !
 ! D43   D(9,5,6,3)           -179.45                                           !
 ! D44   D(9,5,6,10)            -0.7712                                         !
 ! D45   D(2,7,12,19)          -69.8849                                         !
 ! D46   D(2,7,12,21)          166.2046                                         !
 ! D47   D(13,7,12,19)          54.5998                                         !
 ! D48   D(13,7,12,21)         -69.3107                                         !
 ! D49   D(14,7,12,19)         171.7903                                         !
 ! D50   D(14,7,12,21)          47.8799                                         !
 ! D51   D(3,11,16,18)          34.3381                                         !
 ! D52   D(3,11,16,20)         159.1854                                         !
 ! D53   D(3,11,16,22)         -85.984                                          !
 ! D54   D(15,11,16,18)        -78.1805                                         !
 ! D55   D(15,11,16,20)         46.6669                                         !
 ! D56   D(15,11,16,22)        161.4975                                         !
 ! D57   D(17,11,16,18)        163.0711                                         !
 ! D58   D(17,11,16,20)        -72.0816                                         !
 ! D59   D(17,11,16,22)         42.749                                          !
 ! D60   D(7,12,19,31)          61.9561                                         !
 ! D61   D(7,12,19,32)         -63.6846                                         !
 ! D62   D(7,12,19,33)         172.8058                                         !
 ! D63   D(21,12,19,31)       -176.4975                                         !
 ! D64   D(21,12,19,32)         57.8617                                         !
 ! D65   D(21,12,19,33)        -65.6478                                         !
 ! D66   D(7,12,21,34)         -60.8391                                         !
 ! D67   D(7,12,21,35)         178.6396                                         !
 ! D68   D(7,12,21,36)          53.8774                                         !
 ! D69   D(19,12,21,34)        175.9915                                         !
 ! D70   D(19,12,21,35)         55.4702                                         !
 ! D71   D(19,12,21,36)        -69.2921                                         !
 ! D72   D(11,16,18,1)         -27.1549                                         !
 ! D73   D(11,16,18,29)       -127.1359                                         !
 ! D74   D(11,16,18,37)        136.5493                                         !
 ! D75   D(11,16,18,39)         53.2963                                         !
 ! D76   D(20,16,18,1)        -137.5017                                         !
 ! D77   D(20,16,18,29)        122.5174                                         !
 ! D78   D(20,16,18,37)         26.2025                                         !
 ! D79   D(20,16,18,39)        -57.0505                                         !
 ! D80   D(22,16,18,1)          81.3697                                         !
 ! D81   D(22,16,18,29)        -18.6113                                         !
 ! D82   D(22,16,18,37)       -114.9261                                         !
 ! D83   D(22,16,18,39)        161.8209                                         !
 ! D84   D(11,16,20,23)        -83.592                                          !
 ! D85   D(11,16,20,24)        159.7139                                         !
 ! D86   D(11,16,20,25)         36.3142                                         !
 ! D87   D(18,16,20,23)         22.5595                                         !
 ! D88   D(18,16,20,24)        -94.1346                                         !
 ! D89   D(18,16,20,25)        142.4657                                         !
 ! D90   D(22,16,20,23)        166.3164                                         !
 ! D91   D(22,16,20,24)         49.6223                                         !
 ! D92   D(22,16,20,25)        -73.7774                                         !
 ! D93   D(11,16,22,26)         53.3682                                         !
 ! D94   D(11,16,22,27)        -65.5024                                         !
 ! D95   D(11,16,22,28)        171.4167                                         !
 ! D96   D(18,16,22,26)        -50.8117                                         !
 ! D97   D(18,16,22,27)       -169.6823                                         !
 ! D98   D(18,16,22,28)         67.2368                                         !
 ! D99   D(20,16,22,26)        163.7542                                         !
 ! D100  D(20,16,22,27)         44.8837                                         !
 ! D101  D(20,16,22,28)        -78.1973                                         !
 ! D102  D(1,18,37,38)         167.5826                                         !
 ! D103  D(16,18,37,38)         62.7329                                         !
 ! D104  D(29,18,37,38)        -36.2222                                         !
 ! D105  D(39,18,37,38)        147.5549                                         !
 ! D106  D(1,18,39,40)        -173.5824                                         !
 ! D107  D(16,18,39,40)        102.5412                                         !
 ! D108  D(37,18,39,40)          0.6647                                         !
 ! D109  D(12,19,32,44)       -179.4666                                         !
 ! D110  D(12,19,32,45)         62.2555                                         !
 ! D111  D(12,19,32,46)        -60.7479                                         !
 ! D112  D(31,19,32,44)         57.5116                                         !
 ! D113  D(31,19,32,45)        -60.7663                                         !
 ! D114  D(31,19,32,46)        176.2303                                         !
 ! D115  D(33,19,32,44)        -58.1698                                         !
 ! D116  D(33,19,32,45)       -176.4477                                         !
 ! D117  D(33,19,32,46)         60.5489                                         !
 ! D118  D(16,20,23,47)       -177.1898                                         !
 ! D119  D(16,20,23,48)         62.9451                                         !
 ! D120  D(16,20,23,49)        -56.8308                                         !
 ! D121  D(24,20,23,47)        -59.2178                                         !
 ! D122  D(24,20,23,48)       -179.0829                                         !
 ! D123  D(24,20,23,49)         61.1412                                         !
 ! D124  D(25,20,23,47)         60.2297                                         !
 ! D125  D(25,20,23,48)        -59.6354                                         !
 ! D126  D(25,20,23,49)       -179.4113                                         !
 ! D127  D(16,20,24,50)        169.431                                          !
 ! D128  D(16,20,24,51)         51.3481                                         !
 ! D129  D(16,20,24,52)        -71.5881                                         !
 ! D130  D(23,20,24,50)         52.8574                                         !
 ! D131  D(23,20,24,51)        -65.2256                                         !
 ! D132  D(23,20,24,52)        171.8382                                         !
 ! D133  D(25,20,24,50)        -65.5927                                         !
 ! D134  D(25,20,24,51)        176.3244                                         !
 ! D135  D(25,20,24,52)         53.3882                                         !
 ! D136  D(16,20,25,53)       -179.2021                                         !
 ! D137  D(16,20,25,54)         61.3678                                         !
 ! D138  D(16,20,25,55)        -61.7778                                         !
 ! D139  D(23,20,25,53)        -60.0229                                         !
 ! D140  D(23,20,25,54)       -179.453                                          !
 ! D141  D(23,20,25,55)         57.4014                                         !
 ! D142  D(24,20,25,53)         57.7692                                         !
 ! D143  D(24,20,25,54)        -61.6609                                         !
 ! D144  D(24,20,25,55)        175.1934                                         !
 ! D145  D(12,21,35,41)         49.1984                                         !
 ! D146  D(12,21,35,42)        -72.54                                           !
 ! D147  D(12,21,35,43)        168.7264                                         !
 ! D148  D(34,21,35,41)        -69.4862                                         !
 ! D149  D(34,21,35,42)        168.7754                                         !
 ! D150  D(34,21,35,43)         50.0418                                         !
 ! D151  D(36,21,35,41)        172.9432                                         !
 ! D152  D(36,21,35,42)         51.2048                                         !
 ! D153  D(36,21,35,43)        -67.5289                                         !
 ! D154  D(16,22,26,62)        174.2444                                         !
 ! D155  D(16,22,26,63)         55.0201                                         !
 ! D156  D(16,22,26,64)        -67.3217                                         !
 ! D157  D(27,22,26,62)        -63.4828                                         !
 ! D158  D(27,22,26,63)        177.293                                          !
 ! D159  D(27,22,26,64)         54.9511                                         !
 ! D160  D(28,22,26,62)         54.7861                                         !
 ! D161  D(28,22,26,63)        -64.4381                                         !
 ! D162  D(28,22,26,64)        173.22                                           !
 ! D163  D(16,22,27,56)        -68.6703                                         !
 ! D164  D(16,22,27,57)        172.7161                                         !
 ! D165  D(16,22,27,58)         54.1699                                         !
 ! D166  D(26,22,27,56)        172.806                                          !
 ! D167  D(26,22,27,57)         54.1924                                         !
 ! D168  D(26,22,27,58)        -64.3538                                         !
 ! D169  D(28,22,27,56)         55.1163                                         !
 ! D170  D(28,22,27,57)        -63.4973                                         !
 ! D171  D(28,22,27,58)        177.9565                                         !
 ! D172  D(16,22,28,59)         67.9783                                         !
 ! D173  D(16,22,28,60)        -54.4738                                         !
 ! D174  D(16,22,28,61)       -173.1385                                         !
 ! D175  D(26,22,28,59)       -174.6813                                         !
 ! D176  D(26,22,28,60)         62.8666                                         !
 ! D177  D(26,22,28,61)        -55.7981                                         !
 ! D178  D(27,22,28,59)        -57.3406                                         !
 ! D179  D(27,22,28,60)       -179.7927                                         !
 ! D180  D(27,22,28,61)         61.5426                                         !
 --------------------------------------------------------------------------------
 Stoichiometry    C20H37N2O3PRu
 Framework group  C1[X(C20H37N2O3PRu)]
 Deg. of freedom   186
 Full point group                 C1      NOp   1
 Largest Abelian subgroup         C1      NOp   1
 Largest concise Abelian subgroup C1      NOp   1
                         Standard orientation:                         
 ---------------------------------------------------------------------
 Center     Atomic      Atomic             Coordinates (Angstroms)
 Number     Number       Type             X           Y           Z
 ---------------------------------------------------------------------
      1          7           0       -0.714614    1.411452   -0.055521
      2          6           0       -1.937253    1.873549    0.261832
      3          6           0        0.194590    2.207231   -0.652389
      4          6           0       -2.281284    3.202664    0.053608
      5          6           0       -1.331138    4.060303   -0.497172
      6          6           0       -0.087730    3.557090   -0.861706
      7          6           0       -2.850433    0.844287    0.855282
      8          1           0       -3.279592    3.554365    0.315619
      9          1           0       -1.568833    5.112484   -0.663414
     10          1           0        0.661920    4.197075   -1.328171
     11          6           0        1.457211    1.551827   -1.117836
     12          7           0       -2.724110   -0.455342    0.169506
     13          1           0       -3.891597    1.210429    0.861212
     14          1           0       -2.556080    0.686534    1.905735
     15          1           0        1.243037    1.167366   -2.130265
     16         15           0        1.789852   -0.019977   -0.165053
     17          1           0        2.297217    2.259372   -1.160896
     18         44           0       -0.399280   -0.613831    0.081718
     19          6           0       -3.282831   -0.393396   -1.199178
     20          6           0        2.973245   -0.995459   -1.293617
     21          6           0       -3.384750   -1.485948    1.002001
     22          6           0        2.721820    0.589881    1.382199
     23          6           0        2.117695   -1.741509   -2.320386
     24          6           0        3.724096   -2.041666   -0.467916
     25          6           0        3.963422   -0.097804   -2.038987
     26          6           0        1.863810    1.684719    2.028225
     27          6           0        4.090313    1.193559    1.063013
     28          6           0        2.893492   -0.549134    2.391745
     29          6           0       -0.394291   -0.836172    1.899562
     30          8           0       -0.458481   -1.026519    3.050493
     31          1           0       -2.689986    0.348120   -1.750050
     32          6           0       -4.774746   -0.118192   -1.305488
     33          1           0       -3.032780   -1.347927   -1.677515
     34          1           0       -2.850027   -1.497183    1.962951
     35          6           0       -3.352267   -2.869011    0.387502
     36          1           0       -4.424054   -1.169180    1.221920
     37          8           0       -0.322526   -2.629038   -0.330691
     38          1           0        0.224030   -3.101478    0.307460
     39          8           0       -0.538052   -0.414103   -1.963233
     40          1           0       -0.519269   -1.340939   -2.239786
     41          1           0       -2.321974   -3.101747    0.065118
     42          1           0       -4.035211   -2.960525   -0.470673
     43          1           0       -3.674040   -3.602850    1.141843
     44          1           0       -5.052700   -0.109139   -2.370168
     45          1           0       -5.064128    0.860889   -0.892823
     46          1           0       -5.388389   -0.888756   -0.814524
     47          1           0        2.789556   -2.351081   -2.948659
     48          1           0        1.558536   -1.050208   -2.964195
     49          1           0        1.384713   -2.390953   -1.816846
     50          1           0        4.255600   -2.717327   -1.158073
     51          1           0        3.033018   -2.657197    0.127773
     52          1           0        4.474757   -1.602643    0.203405
     53          1           0        4.598612   -0.734970   -2.677211
     54          1           0        4.627935    0.471198   -1.376960
     55          1           0        3.448079    0.608378   -2.706125
     56          1           0        4.810610    0.442659    0.712196
     57          1           0        4.504934    1.637942    1.983376
     58          1           0        4.031579    1.996358    0.312455
     59          1           0        3.574903   -1.329713    2.033590
     60          1           0        1.937802   -1.019144    2.651610
     61          1           0        3.322551   -0.136330    3.320202
     62          1           0        2.331878    1.980254    2.981435
     63          1           0        0.843861    1.341471    2.245293
     64          1           0        1.799787    2.586224    1.401157
 ---------------------------------------------------------------------
 Rotational constants (GHZ):           0.2485176           0.1536507           0.1330059
 General basis read from cards:  (5D, 7F)
 ======================================================================================================
                                       Pseudopotential Parameters
 ======================================================================================================
  Center     Atomic      Valence      Angular      Power
  Number     Number     Electrons     Momentum     of R      Exponent        Coefficient   SO-Coeffient
 ======================================================================================================
    1          7
                                   No pseudopotential on this center.
    2          6
                                   No pseudopotential on this center.
    3          6
                                   No pseudopotential on this center.
    4          6
                                   No pseudopotential on this center.
    5          6
                                   No pseudopotential on this center.
    6          6
                                   No pseudopotential on this center.
    7          6
                                   No pseudopotential on this center.
    8          1
                                   No pseudopotential on this center.
    9          1
                                   No pseudopotential on this center.
   10          1
                                   No pseudopotential on this center.
   11          6
                                   No pseudopotential on this center.
   12          7
                                   No pseudopotential on this center.
   13          1
                                   No pseudopotential on this center.
   14          1
                                   No pseudopotential on this center.
   15          1
                                   No pseudopotential on this center.
   16         15
                                   No pseudopotential on this center.
   17          1
                                   No pseudopotential on this center.
   18         44           16
                                      G and up 
                                                     2        1.0000000        0.00000000    0.00000000
                                      S - G
                                                     2       11.1052690      209.82297100    0.00000000
                                                     2        5.4147450       30.65472600    0.00000000
                                      P - G
                                                     2        9.7712710      146.33618200    0.00000000
                                                     2        5.0739910       24.12787700    0.00000000
                                      D - G
                                                     2        7.6714230       67.51589700    0.00000000
                                                     2        4.1365650        9.87010400    0.00000000
                                      F - G
                                                     2       11.3600000      -28.34061600    0.00000000
                                                     2        5.6800000       -4.94462900    0.00000000
   19          6
                                   No pseudopotential on this center.
   20          6
                                   No pseudopotential on this center.
   21          6
                                   No pseudopotential on this center.
   22          6
                                   No pseudopotential on this center.
   23          6
                                   No pseudopotential on this center.
   24          6
                                   No pseudopotential on this center.
   25          6
                                   No pseudopotential on this center.
   26          6
                                   No pseudopotential on this center.
   27          6
                                   No pseudopotential on this center.
   28          6
                                   No pseudopotential on this center.
   29          6
                                   No pseudopotential on this center.
   30          8
                                   No pseudopotential on this center.
   31          1
                                   No pseudopotential on this center.
   32          6
                                   No pseudopotential on this center.
   33          1
                                   No pseudopotential on this center.
   34          1
                                   No pseudopotential on this center.
   35          6
                                   No pseudopotential on this center.
   36          1
                                   No pseudopotential on this center.
   37          8
                                   No pseudopotential on this center.
   38          1
                                   No pseudopotential on this center.
   39          8
                                   No pseudopotential on this center.
   40          1
                                   No pseudopotential on this center.
   41          1
                                   No pseudopotential on this center.
   42          1
                                   No pseudopotential on this center.
   43          1
                                   No pseudopotential on this center.
   44          1
                                   No pseudopotential on this center.
   45          1
                                   No pseudopotential on this center.
   46          1
                                   No pseudopotential on this center.
   47          1
                                   No pseudopotential on this center.
   48          1
                                   No pseudopotential on this center.
   49          1
                                   No pseudopotential on this center.
   50          1
                                   No pseudopotential on this center.
   51          1
                                   No pseudopotential on this center.
   52          1
                                   No pseudopotential on this center.
   53          1
                                   No pseudopotential on this center.
   54          1
                                   No pseudopotential on this center.
   55          1
                                   No pseudopotential on this center.
   56          1
                                   No pseudopotential on this center.
   57          1
                                   No pseudopotential on this center.
   58          1
                                   No pseudopotential on this center.
   59          1
                                   No pseudopotential on this center.
   60          1
                                   No pseudopotential on this center.
   61          1
                                   No pseudopotential on this center.
   62          1
                                   No pseudopotential on this center.
   63          1
                                   No pseudopotential on this center.
   64          1
                                   No pseudopotential on this center.
 ======================================================================================================
 There are   618 symmetry adapted cartesian basis functions of A   symmetry.
 There are   589 symmetry adapted basis functions of A   symmetry.
   589 basis functions,  1220 primitive gaussians,   618 cartesian basis functions
   113 alpha electrons      113 beta electrons
       nuclear repulsion energy      3496.8706660945 Hartrees.
 NAtoms=   64 NActive=   64 NUniq=   64 SFac= 1.00D+00 NAtFMM=   60 NAOKFM=T Big=T
 Integral buffers will be    131072 words long.
 Regular integral format.
 Two-electron integral symmetry is turned on.
 Nuclear repulsion after empirical dispersion term =     3496.7738730579 Hartrees.
 ------------------------------------------------------------------------------
 Polarizable Continuum Model (PCM)
 =================================
 Model                : PCM.
 Atomic radii         : SMD-Coulomb.
 Polarization charges : Total charges.
 Charge compensation  : None.
 Solution method      : On-the-fly selection.
 Cavity type          : VdW (van der Waals Surface) (Alpha=1.000).
 Cavity algorithm     : GePol (No added spheres)
                        Default sphere list used, NSphG=   64.
                        Lebedev-Laikov grids with approx.  5.0 points / Ang**2.
                        Smoothing algorithm: York/Karplus (Gamma=1.0000).
                        Polarization charges: spherical gaussians, with
                                              point-specific exponents (IZeta= 3).
                        Self-potential: point-specific (ISelfS= 7).
                        Self-field    : sphere-specific E.n sum rule (ISelfD= 2).
 Solvent              : Water, Eps=  78.355300 Eps(inf)=   1.777849
 ------------------------------------------------------------------------------
 ------------------------------------------------------------------------------
 Atomic radii for non-electrostatic terms: SMD-CDS.
 ------------------------------------------------------------------------------
 Nuclear repulsion after PCM non-electrostatic terms =     3496.7912640993 Hartrees.
 One-electron integrals computed using PRISM.
   1 Symmetry operations used in ECPInt.
 ECPInt:  NShTT=   40186 NPrTT=  280000 LenC2=   37337 LenP2D=  142394.
 LDataN:  DoStor=T MaxTD1= 6 Len=  172
 NBasis=   589 RedAO= T EigKep=  4.36D-04  NBF=   589
 NBsUse=   589 1.00D-06 EigRej= -1.00D+00 NBFU=   589
 Defaulting to unpruned grid for atomic number  44.
 ExpMin= 1.60D-02 ExpMax= 9.48D+04 ExpMxC= 3.24D+03 IAcc=3 IRadAn=         5 AccDes= 0.00D+00
 Harris functional with IExCor= 1009 and IRadAn=       5 diagonalized for initial guess.
 HarFok:  IExCor= 1009 AccDes= 0.00D+00 IRadAn=         5 IDoV= 1 UseB2=F ITyADJ=14
 ICtDFT=  3500011 ScaDFX=  1.000000  1.000000  1.000000  1.000000
 Defaulting to unpruned grid for atomic number  44.
 FoFCou: FMM=F IPFlag=           0 FMFlag=      100000 FMFlg1=        2001
         NFxFlg=           0 DoJE=T BraDBF=F KetDBF=T FulRan=T
         wScrn=  0.000000 ICntrl=       500 IOpCl=  0 I1Cent=   200000004 NGrid=           0
         NMat0=    1 NMatS0=      1 NMatT0=    0 NMatD0=    1 NMtDS0=    0 NMtDT0=    0
 Petite list used in FoFCou.
 Requested convergence on RMS density matrix=1.00D-08 within 128 cycles.
 Requested convergence on MAX density matrix=1.00D-06.
 Requested convergence on             energy=1.00D-06.
 No special actions if energy rises.
 Defaulting to unpruned grid for atomic number  44.
 Defaulting to unpruned grid for atomic number  44.
 Defaulting to unpruned grid for atomic number  44.
 Defaulting to unpruned grid for atomic number  44.
 Defaulting to unpruned grid for atomic number  44.
 Defaulting to unpruned grid for atomic number  44.
 Defaulting to unpruned grid for atomic number  44.
 Defaulting to unpruned grid for atomic number  44.
 Defaulting to unpruned grid for atomic number  44.
 Defaulting to unpruned grid for atomic number  44.
 Defaulting to unpruned grid for atomic number  44.
 Defaulting to unpruned grid for atomic number  44.
 Defaulting to unpruned grid for atomic number  44.
 Defaulting to unpruned grid for atomic number  44.
 Defaulting to unpruned grid for atomic number  44.
 Defaulting to unpruned grid for atomic number  44.
 Inv3:  Mode=1 IEnd=    46429068.
 Iteration    1 A*A^-1 deviation from unit magnitude is 6.66D-15 for   2797.
 Iteration    1 A*A^-1 deviation from orthogonality  is 6.79D-15 for   2516    156.
 Iteration    1 A^-1*A deviation from unit magnitude is 5.22D-15 for   3906.
 Iteration    1 A^-1*A deviation from orthogonality  is 1.24D-12 for   3453   3416.
 Error on total polarization charges =  0.07086
 SCF Done:  E(RPBE1PBE) =  -1554.68832645     A.U. after   17 cycles
            NFock= 17  Conv=0.24D-08     -V/T= 2.0467
 SMD-CDS (non-electrostatic) energy       (kcal/mol) =      10.91
 (included in total energy above)
 DoSCS=F DFT=T ScalE2(SS,OS)=  1.000000  1.000000
 ExpMin= 1.60D-02 ExpMax= 9.48D+04 ExpMxC= 3.24D+03 IAcc=3 IRadAn=         5 AccDes= 0.00D+00
 HarFok:  IExCor=  205 AccDes= 0.00D+00 IRadAn=         5 IDoV=-2 UseB2=F ITyADJ=14
 ICtDFT= 12500011 ScaDFX=  1.000000  1.000000  1.000000  1.000000
 Defaulting to unpruned grid for atomic number  44.
 GSVD:  LWork=       -1428 too small for GESVD, short by        6290 words or        6290 for optimal perf.
 Range of M.O.s used for correlation:    35   589
 NBasis=   589 NAE=   113 NBE=   113 NFC=    34 NFV=     0
 NROrb=    555 NOA=    79 NOB=    79 NVA=   476 NVB=   476
 NEqPCM:  Using non-equilibrium solvation (IEInf=1, Eps=  78.3553, EpsInf=   1.7778)
 Inv3:  Mode=1 IEnd=    46429068.
 Iteration    1 A*A^-1 deviation from unit magnitude is 8.88D-15 for   2806.
 Iteration    1 A*A^-1 deviation from orthogonality  is 4.01D-15 for   2507    148.
 Iteration    1 A^-1*A deviation from unit magnitude is 7.55D-15 for   2806.
 Iteration    1 A^-1*A deviation from orthogonality  is 9.72D-15 for   2080   2035.
 Orbital symmetries:
       Occupied  (A) (A) (A) (A) (A) (A) (A) (A) (A) (A) (A) (A)
                 (A) (A) (A) (A) (A) (A) (A) (A) (A) (A) (A) (A)
                 (A) (A) (A) (A) (A) (A) (A) (A) (A) (A) (A) (A)
                 (A) (A) (A) (A) (A) (A) (A) (A) (A) (A) (A) (A)
                 (A) (A) (A) (A) (A) (A) (A) (A) (A) (A) (A) (A)
                 (A) (A) (A) (A) (A) (A) (A) (A) (A) (A) (A) (A)
                 (A) (A) (A) (A) (A) (A) (A) (A) (A) (A) (A) (A)
                 (A) (A) (A) (A) (A) (A) (A) (A) (A) (A) (A) (A)
                 (A) (A) (A) (A) (A) (A) (A) (A) (A) (A) (A) (A)
                 (A) (A) (A) (A) (A)
       Virtual   (A) (A) (A) (A) (A) (A) (A) (A) (A) (A) (A) (A)
                 (A) (A) (A) (A) (A) (A) (A) (A) (A) (A) (A) (A)
                 (A) (A) (A) (A) (A) (A) (A) (A) (A) (A) (A) (A)
                 (A) (A) (A) (A) (A) (A) (A) (A) (A) (A) (A) (A)
                 (A) (A) (A) (A) (A) (A) (A) (A) (A) (A) (A) (A)
                 (A) (A) (A) (A) (A) (A) (A) (A) (A) (A) (A) (A)
                 (A) (A) (A) (A) (A) (A) (A) (A) (A) (A) (A) (A)
                 (A) (A) (A) (A) (A) (A) (A) (A) (A) (A) (A) (A)
                 (A) (A) (A) (A) (A) (A) (A) (A) (A) (A) (A) (A)
                 (A) (A) (A) (A) (A) (A) (A) (A) (A) (A) (A) (A)
                 (A) (A) (A) (A) (A) (A) (A) (A) (A) (A) (A) (A)
                 (A) (A) (A) (A) (A) (A) (A) (A) (A) (A) (A) (A)
                 (A) (A) (A) (A) (A) (A) (A) (A) (A) (A) (A) (A)
                 (A) (A) (A) (A) (A) (A) (A) (A) (A) (A) (A) (A)
                 (A) (A) (A) (A) (A) (A) (A) (A) (A) (A) (A) (A)
                 (A) (A) (A) (A) (A) (A) (A) (A) (A) (A) (A) (A)
                 (A) (A) (A) (A) (A) (A) (A) (A) (A) (A) (A) (A)
                 (A) (A) (A) (A) (A) (A) (A) (A) (A) (A) (A) (A)
                 (A) (A) (A) (A) (A) (A) (A) (A) (A) (A) (A) (A)
                 (A) (A) (A) (A) (A) (A) (A) (A) (A) (A) (A) (A)
                 (A) (A) (A) (A) (A) (A) (A) (A) (A) (A) (A) (A)
                 (A) (A) (A) (A) (A) (A) (A) (A) (A) (A) (A) (A)
                 (A) (A) (A) (A) (A) (A) (A) (A) (A) (A) (A) (A)
                 (A) (A) (A) (A) (A) (A) (A) (A) (A) (A) (A) (A)
                 (A) (A) (A) (A) (A) (A) (A) (A) (A) (A) (A) (A)
                 (A) (A) (A) (A) (A) (A) (A) (A) (A) (A) (A) (A)
                 (A) (A) (A) (A) (A) (A) (A) (A) (A) (A) (A) (A)
                 (A) (A) (A) (A) (A) (A) (A) (A) (A) (A) (A) (A)
                 (A) (A) (A) (A) (A) (A) (A) (A) (A) (A) (A) (A)
                 (A) (A) (A) (A) (A) (A) (A) (A) (A) (A) (A) (A)
                 (A) (A) (A) (A) (A) (A) (A) (A) (A) (A) (A) (A)
                 (A) (A) (A) (A) (A) (A) (A) (A) (A) (A) (A) (A)
                 (A) (A) (A) (A) (A) (A) (A) (A) (A) (A) (A) (A)
                 (A) (A) (A) (A) (A) (A) (A) (A) (A) (A) (A) (A)
                 (A) (A) (A) (A) (A) (A) (A) (A) (A) (A) (A) (A)
                 (A) (A) (A) (A) (A) (A) (A) (A) (A) (A) (A) (A)
                 (A) (A) (A) (A) (A) (A) (A) (A) (A) (A) (A) (A)
                 (A) (A) (A) (A) (A) (A) (A) (A) (A) (A) (A) (A)
                 (A) (A) (A) (A) (A) (A) (A) (A) (A) (A) (A) (A)
                 (A) (A) (A) (A) (A) (A) (A) (A)
   100 initial guesses have been made.
 Convergence on wavefunction:    0.001000000000000
 Iteration     1 Dimension   100 NMult     0 NNew    100
 CISAX will form    16 AO SS matrices at one time.
 Defaulting to unpruned grid for atomic number  44.
 Defaulting to unpruned grid for atomic number  44.
 Defaulting to unpruned grid for atomic number  44.
 Defaulting to unpruned grid for atomic number  44.
 Defaulting to unpruned grid for atomic number  44.
 Defaulting to unpruned grid for atomic number  44.
 Defaulting to unpruned grid for atomic number  44.
 Defaulting to unpruned grid for atomic number  44.
 Defaulting to unpruned grid for atomic number  44.
 Defaulting to unpruned grid for atomic number  44.
 Defaulting to unpruned grid for atomic number  44.
 Defaulting to unpruned grid for atomic number  44.
 Defaulting to unpruned grid for atomic number  44.
 Defaulting to unpruned grid for atomic number  44.
 Defaulting to unpruned grid for atomic number  44.
 Defaulting to unpruned grid for atomic number  44.
 New state      2 was old state      6
 New state      3 was old state      2
 New state      4 was old state      3
 New state      5 was old state     10
 New state      6 was old state      7
 New state      7 was old state     13
 New state      8 was old state      4
 New state      9 was old state      5
 New state     10 was old state     11
 New state     11 was old state      8
 New state     12 was old state     15
 New state     13 was old state     12
 New state     14 was old state      9
 New state     15 was old state     18
 New state     16 was old state     22
 New state     17 was old state     14
 New state     18 was old state     25
 New state     19 was old state     17
 New state     20 was old state     34
 New state     21 was old state     20
 New state     22 was old state     16
 New state     23 was old state     30
 New state     24 was old state     19
 New state     25 was old state     23
 Iteration     2 Dimension   150 NMult   100 NNew     50
 New state      6 was old state      7
 New state      7 was old state      6
 New state     14 was old state     15
 New state     15 was old state     14
 New state     17 was old state     18
 New state     18 was old state     17
 New state     21 was old state     22
 New state     22 was old state     21
 New state     24 was old state     27
 New state     25 was old state     24
 Iteration     3 Dimension   200 NMult   150 NNew     50
 Iteration     4 Dimension   246 NMult   200 NNew     46
 Iteration     5 Dimension   268 NMult   246 NNew     22
 Iteration     6 Dimension   272 NMult   268 NNew      4
 ***********************************************************************
 Excited states from <AA,BB:AA,BB> singles matrix:
 ***********************************************************************
 
 Ground to excited state transition densities written to RWF  633
 Ground to excited state transition electric dipole moments (Au):
       state          X           Y           Z        Dip. S.      Osc.
         1        -0.3137      0.0454      0.0773      0.1065      0.0083
         2         0.3246     -0.1841     -0.0569      0.1425      0.0112
         3        -0.1226      0.0316      0.0167      0.0163      0.0015
         4        -0.0295      0.0447      0.0158      0.0031      0.0003
         5         0.2298      0.1128     -0.2846      0.1465      0.0146
         6         0.2793     -0.8835      0.1832      0.8922      0.0893
         7        -0.1642      0.0093      0.0019      0.0271      0.0027
         8         0.1719     -0.2053     -0.0238      0.0723      0.0074
         9         0.0950     -0.3856      0.1067      0.1691      0.0180
        10        -0.0890     -0.0198      0.0403      0.0099      0.0011
        11         0.0056      0.0843     -0.0217      0.0076      0.0008
        12         0.0753      0.1315     -0.0220      0.0234      0.0026
        13        -0.0134     -0.0548      0.0286      0.0040      0.0005
        14        -0.0384      0.0456     -0.0850      0.0108      0.0013
        15        -0.1785     -0.0381      0.1115      0.0457      0.0054
        16         0.1327     -0.0010     -0.0044      0.0176      0.0021
        17        -0.2045     -0.0169      0.0321      0.0431      0.0054
        18        -0.1519      0.1792      0.0311      0.0562      0.0071
        19         0.1939      0.0768     -0.0973      0.0529      0.0068
        20        -0.2985      0.0616     -0.0054      0.0929      0.0120
        21         0.5911      0.0320     -0.0872      0.3581      0.0462
        22         0.1340     -0.0666     -0.0778      0.0284      0.0037
        23        -0.2024     -0.1254      0.1313      0.0739      0.0099
        24         0.4448     -0.0309     -0.2463      0.2595      0.0350
        25        -0.0974      0.0545      0.1218      0.0273      0.0037
 Ground to excited state transition velocity dipole moments (Au):
       state          X           Y           Z        Dip. S.      Osc.
         1         0.0220     -0.0044     -0.0055      0.0005      0.0030
         2        -0.0275      0.0174      0.0047      0.0011      0.0061
         3         0.0158     -0.0031     -0.0010      0.0003      0.0013
         4         0.0072     -0.0091     -0.0084      0.0002      0.0010
         5        -0.0188     -0.0117      0.0327      0.0016      0.0070
         6        -0.0366      0.1186     -0.0239      0.0160      0.0709
         7         0.0316     -0.0049     -0.0038      0.0010      0.0045
         8        -0.0267      0.0210      0.0102      0.0013      0.0055
         9        -0.0146      0.0529     -0.0125      0.0032      0.0132
        10         0.0225      0.0069     -0.0083      0.0006      0.0025
        11        -0.0109     -0.0110      0.0047      0.0003      0.0010
        12        -0.0072     -0.0363      0.0060      0.0014      0.0055
        13        -0.0168      0.0125     -0.0046      0.0005      0.0018
        14         0.0007     -0.0272      0.0217      0.0012      0.0046
        15         0.0337      0.0052     -0.0138      0.0014      0.0051
        16        -0.0402      0.0031     -0.0000      0.0016      0.0060
        17         0.0385     -0.0009     -0.0016      0.0015      0.0052
        18         0.0284     -0.0354     -0.0091      0.0021      0.0075
        19        -0.0314     -0.0170      0.0202      0.0017      0.0059
        20         0.0572     -0.0081     -0.0005      0.0033      0.0115
        21        -0.1152     -0.0057      0.0167      0.0136      0.0468
        22        -0.0351      0.0109      0.0148      0.0016      0.0054
        23         0.0371      0.0241     -0.0250      0.0026      0.0086
        24        -0.0900      0.0107      0.0466      0.0104      0.0343
        25         0.0190     -0.0158     -0.0284      0.0014      0.0046
 Ground to excited state transition magnetic dipole moments (Au):
       state          X           Y           Z
         1         0.0923      0.4491     -0.8013
         2         0.0232      0.0848      0.8519
         3        -0.0530      0.0667     -0.3508
         4         0.0172     -0.0991     -0.0214
         5        -0.0207     -0.7385     -0.3446
         6        -0.1496     -0.2194     -0.1637
         7         0.0052     -0.1604      0.3801
         8        -0.7342      0.0060     -0.1505
         9         0.0229     -0.1602      0.0670
        10         0.2161      0.1627     -0.0208
        11        -0.0264      0.0878      0.2956
        12         0.1440     -0.0014      0.3110
        13         0.1928      0.4070     -0.0919
        14        -0.8801      0.1204      0.1852
        15        -0.1146     -0.0010      0.2321
        16         0.3044      0.1812     -0.0064
        17        -0.2965     -0.1330     -0.3158
        18        -0.0960      0.0755     -0.0192
        19         0.2335     -0.1634      0.8544
        20        -0.0923     -0.4764     -0.7267
        21         0.5116      0.4105      1.5382
        22        -0.0635      0.0991     -0.1154
        23        -0.3854     -0.1877     -1.0517
        24        -0.1358     -0.0680      0.2246
        25        -0.0251      0.0292     -0.0469
 Ground to excited state transition velocity quadrupole moments (Au):
       state          XX          YY          ZZ          XY          XZ          YZ
         1        -0.0247      0.0479     -0.0003      0.0009     -0.0340      0.0140
         2         0.0109      0.0169     -0.0139     -0.0342      0.0307     -0.0187
         3        -0.0166     -0.0158      0.0021      0.0421      0.0314     -0.0139
         4        -0.0215     -0.0267      0.0128     -0.0403     -0.0141      0.0319
         5         0.0446     -0.0349      0.0020      0.1105      0.0568     -0.0712
         6        -0.0166      0.6571     -0.1981     -0.2841      0.0328     -0.0648
         7        -0.0045      0.0150     -0.0015     -0.0891     -0.0333      0.0678
         8         0.0339      0.1587     -0.0629      0.0715      0.0382     -0.1110
         9        -0.0650      0.3440     -0.1087     -0.1534     -0.0039     -0.0149
        10         0.0453      0.0904     -0.0752     -0.0491     -0.0032      0.0224
        11         0.1149     -0.0793      0.0084     -0.0563     -0.0136      0.0547
        12        -0.1234      0.0308     -0.0025      0.0365      0.0311     -0.0233
        13         0.0585      0.1038     -0.0792     -0.0042     -0.0155     -0.0062
        14         0.0833     -0.0011     -0.0164      0.0642     -0.0016     -0.0989
        15         0.0791     -0.0150      0.0299     -0.1789     -0.1621      0.0999
        16        -0.0022      0.0483     -0.0033      0.0352      0.0355     -0.0053
        17         0.0389     -0.0850      0.0307      0.1131      0.0018      0.0423
        18        -0.0374     -0.1027      0.0199      0.1517      0.0097     -0.0317
        19         0.1043     -0.0475     -0.1101     -0.1680     -0.1104      0.0529
        20        -0.0765      0.1001     -0.0235      0.0966     -0.2182     -0.1289
        21         0.3236     -0.1016     -0.0734     -0.3168     -0.0842      0.2088
        22         0.1721     -0.0517     -0.0414      0.1320      0.0254     -0.0732
        23        -0.2996      0.0685      0.0819      0.2462      0.0625     -0.1646
        24         0.0740     -0.1250     -0.0568     -0.0338      0.0577      0.0761
        25         0.0920      0.1971      0.0275      0.0073      0.0053      0.0468
 <0|del|b> * <b|rxdel|0> + <0|del|b> * <b|delr+rdel|0>
 Rotatory Strengths (R) in cgs (10**-40 erg-esu-cm/Gauss)
       state          XX          YY          ZZ    R(velocity)    E-M Angle
         1         6.8251     20.3290     -0.3052      8.9496       77.97
         2        14.3535     12.1297      2.5725      9.6853       80.08
         3         0.5181     -1.7306     -2.4037     -1.2054       96.85
         4         3.2254      0.4923      2.3086      2.0088       35.05
         5         3.8582    -31.2343     16.6381     -3.5794       94.03
         6       -45.2640     11.7079    -44.7980    -26.1180      114.96
         7        -1.0957      1.2434     -2.3818     -0.7447       92.08
         8        -3.4287     46.8785     40.5807     28.0102       46.86
         9       -15.9427     -6.3642    -20.4848    -14.2639      168.07
        10         3.7425     11.0890     11.8056      8.8791       24.52
        11         0.0341      2.8769      0.1379      1.0163       81.74
        12         6.8098      1.6155     -4.7665      1.2196       86.08
        13        11.6022     -5.5390      3.1294      3.0642       76.71
        14         4.2067      3.9385     -7.5792      0.1887       89.74
        15         0.2075    -12.3693    -16.2136     -9.4585      137.91
        16         0.8730    -23.3871    -22.9257    -15.1466      144.84
        17         0.8251    -17.0474    -24.1886    -13.4703      128.19
        18        -6.5948     -3.8410     -9.0248     -6.4868      155.89
        19        27.2781     21.5521     -1.9029     15.6425       69.88
        20         4.3848    -22.4500     14.1734     -1.2973       91.21
        21        32.2921    -94.9055    -67.1314    -43.2482      100.49
        22         1.8968      2.0642      1.8326      1.9312       75.83
        23        24.9001     21.2015    -19.8305      8.7570       82.61
        24        13.2123     30.4988     33.1832     25.6315       37.36
        25         1.2957      3.3726     -3.3082      0.4534       80.10
 1/2[<0|r|b>*<b|rxdel|0> + (<0|rxdel|b>*<b|r|0>)*]
 Rotatory Strengths (R) in cgs (10**-40 erg-esu-cm/Gauss)
       state          XX          YY          ZZ     R(length)
         1        20.4662    -14.4185     43.8270     16.6249
         2        -5.3220     11.0396     34.2993     13.3390
         3        -4.5969     -1.4877      4.1302     -0.6515
         4         0.3583      3.1336      0.2402      1.2440
         5         3.3605     58.9234    -69.3556     -2.3572
         6        29.5616   -137.0824     21.2134    -28.7691
         7         0.5993      1.0563     -0.5035      0.3840
         8        89.2732      0.8782     -2.5289     29.2075
         9        -1.5404    -43.6690     -5.0564    -16.7553
        10        13.5937      2.2733      0.5919      5.4863
        11         0.1049     -5.2367      4.5316     -0.2001
        12        -7.6719      0.1334      4.8388     -0.8999
        13         1.8307     15.7766      1.8612      6.4895
        14       -23.9058     -3.8813     11.1349     -5.5507
        15       -14.4603     -0.0266    -18.3052    -10.9307
        16       -28.5714      0.1287     -0.0198     -9.4875
        17       -42.8748     -1.5887      7.1776    -12.4286
        18       -10.3140     -9.5703      0.4216     -6.4876
        19       -32.0094      8.8678     58.7827     11.8804
        20       -19.4883     20.7462     -2.7811     -0.5077
        21      -213.8584     -9.2811     94.8108    -42.7762
        22         6.0142      4.6661     -6.3445      1.4453
        23       -55.1528    -16.6454     97.6383      8.6134
        24        42.7180     -1.4873     39.1214     26.7840
        25        -1.7313     -1.1263      4.0435      0.3953
  1/2[<0|del|b>*<b|r|0> + (<0|r|b>*<b|del|0>)*] (Au)
       state          X           Y           Z        Dip. S.   Osc.(frdel)
         1        -0.0069     -0.0002     -0.0004      0.0075      0.0050
         2        -0.0089     -0.0032     -0.0003      0.0124      0.0083
         3        -0.0019     -0.0001     -0.0000      0.0020      0.0014
         4        -0.0002     -0.0004     -0.0001      0.0008      0.0005
         5        -0.0043     -0.0013     -0.0093      0.0150      0.0100
         6        -0.0102     -0.1048     -0.0044      0.1193      0.0796
         7        -0.0052     -0.0000     -0.0000      0.0052      0.0035
         8        -0.0046     -0.0043     -0.0002      0.0092      0.0061
         9        -0.0014     -0.0204     -0.0013      0.0231      0.0154
        10        -0.0020     -0.0001     -0.0003      0.0025      0.0016
        11        -0.0001     -0.0009     -0.0001      0.0011      0.0007
        12        -0.0005     -0.0048     -0.0001      0.0054      0.0036
        13         0.0002     -0.0007     -0.0001      0.0006      0.0004
        14        -0.0000     -0.0012     -0.0018      0.0031      0.0021
        15        -0.0060     -0.0002     -0.0015      0.0078      0.0052
        16        -0.0053     -0.0000      0.0000      0.0053      0.0036
        17        -0.0079      0.0000     -0.0001      0.0079      0.0053
        18        -0.0043     -0.0063     -0.0003      0.0109      0.0073
        19        -0.0061     -0.0013     -0.0020      0.0094      0.0062
        20        -0.0171     -0.0005      0.0000      0.0176      0.0117
        21        -0.0681     -0.0002     -0.0015      0.0697      0.0465
        22        -0.0047     -0.0007     -0.0012      0.0066      0.0044
        23        -0.0075     -0.0030     -0.0033      0.0138      0.0092
        24        -0.0400     -0.0003     -0.0115      0.0519      0.0346
        25        -0.0019     -0.0009     -0.0035      0.0062      0.0041

 Excitation energies and oscillator strengths:
 
 Excited State   1:      Singlet-A      3.1843 eV  389.37 nm  f=0.0083  <S**2>=0.000
     113 ->114         0.48972
     113 ->116        -0.43788
     113 ->117         0.17800
 This state for optimization and/or second-order correction.
 Total Energy, E(TD-HF/TD-DFT) =  -1554.57130720    
 Copying the excited state density for this state as the 1-particle RhoCI density.
 
 Excited State   2:      Singlet-A      3.2121 eV  386.00 nm  f=0.0112  <S**2>=0.000
     113 ->114         0.50179
     113 ->116         0.41985
     113 ->117        -0.14141
 
 Excited State   3:      Singlet-A      3.6899 eV  336.01 nm  f=0.0015  <S**2>=0.000
     112 ->114         0.70131
 
 Excited State   4:      Singlet-A      3.8424 eV  322.67 nm  f=0.0003  <S**2>=0.000
     113 ->115         0.69998
 
 Excited State   5:      Singlet-A      4.0559 eV  305.69 nm  f=0.0146  <S**2>=0.000
     112 ->116         0.56161
     112 ->117        -0.28094
     113 ->117        -0.10211
 
 Excited State   6:      Singlet-A      4.0855 eV  303.48 nm  f=0.0893  <S**2>=0.000
     111 ->114         0.67737
     112 ->115        -0.11833
 
 Excited State   7:      Singlet-A      4.1465 eV  299.01 nm  f=0.0027  <S**2>=0.000
     111 ->116         0.34737
     111 ->117        -0.15957
     112 ->116         0.12879
     113 ->117         0.40272
     113 ->118        -0.28739
     113 ->123        -0.19551
 
 Excited State   8:      Singlet-A      4.1657 eV  297.63 nm  f=0.0074  <S**2>=0.000
     111 ->116         0.47300
     111 ->117        -0.17410
     111 ->119         0.11469
     113 ->116        -0.15137
     113 ->117        -0.29376
     113 ->118         0.23084
     113 ->123         0.10768
 
 Excited State   9:      Singlet-A      4.3340 eV  286.08 nm  f=0.0180  <S**2>=0.000
     111 ->114         0.11317
     112 ->115         0.68244
 
 Excited State  10:      Singlet-A      4.4444 eV  278.97 nm  f=0.0011  <S**2>=0.000
     112 ->117        -0.16513
     112 ->118         0.10706
     113 ->119         0.46353
     113 ->120         0.29414
     113 ->122        -0.24544
     113 ->123        -0.13169
 
 Excited State  11:      Singlet-A      4.5494 eV  272.53 nm  f=0.0008  <S**2>=0.000
     109 ->114        -0.14281
     111 ->115         0.63574
     113 ->120        -0.19282
 
 Excited State  12:      Singlet-A      4.6140 eV  268.71 nm  f=0.0026  <S**2>=0.000
     111 ->115         0.21360
     112 ->120        -0.11276
     113 ->119        -0.25215
     113 ->120         0.51218
     113 ->121        -0.20810
 
 Excited State  13:      Singlet-A      4.7309 eV  262.07 nm  f=0.0005  <S**2>=0.000
     112 ->116         0.27666
     112 ->117         0.39734
     112 ->118        -0.35217
     112 ->123        -0.21703
     113 ->119         0.15970
 
 Excited State  14:      Singlet-A      4.7751 eV  259.65 nm  f=0.0013  <S**2>=0.000
     111 ->117         0.40795
     111 ->118        -0.30346
     111 ->119         0.16365
     111 ->123        -0.28412
     112 ->119         0.19515
 
[...]

 Orbital symmetries:
       Occupied  (A) (A) (A) (A) (A) (A) (A) (A) (A) (A) (A) (A)
                 (A) (A) (A) (A) (A) (A) (A) (A) (A) (A) (A) (A)
                 (A) (A) (A) (A) (A) (A) (A) (A) (A) (A) (A) (A)
                 (A) (A) (A) (A) (A) (A) (A) (A) (A) (A) (A) (A)
                 (A) (A) (A) (A) (A) (A) (A) (A) (A) (A) (A) (A)
                 (A) (A) (A) (A) (A) (A) (A) (A) (A) (A) (A) (A)
                 (A) (A) (A) (A) (A) (A) (A) (A) (A) (A) (A) (A)
                 (A) (A) (A) (A) (A) (A) (A) (A) (A) (A) (A) (A)
                 (A) (A) (A) (A) (A) (A) (A) (A) (A) (A) (A) (A)
                 (A) (A) (A) (A) (A)
       Virtual   (A) (A) (A) (A) (A) (A) (A) (A) (A) (A) (A) (A)
                 (A) (A) (A) (A) (A) (A) (A) (A) (A) (A) (A) (A)
                 (A) (A) (A) (A) (A) (A) (A) (A) (A) (A) (A) (A)
                 (A) (A) (A) (A) (A) (A) (A) (A) (A) (A) (A) (A)
                 (A) (A) (A) (A) (A) (A) (A) (A) (A) (A) (A) (A)
                 (A) (A) (A) (A) (A) (A) (A) (A) (A) (A) (A) (A)
                 (A) (A) (A) (A) (A) (A) (A) (A) (A) (A) (A) (A)
                 (A) (A) (A) (A) (A) (A) (A) (A) (A) (A) (A) (A)
                 (A) (A) (A) (A) (A) (A) (A) (A) (A) (A) (A) (A)
                 (A) (A) (A) (A) (A) (A) (A) (A) (A) (A) (A) (A)
                 (A) (A) (A) (A) (A) (A) (A) (A) (A) (A) (A) (A)
                 (A) (A) (A) (A) (A) (A) (A) (A) (A) (A) (A) (A)
                 (A) (A) (A) (A) (A) (A) (A) (A) (A) (A) (A) (A)
                 (A) (A) (A) (A) (A) (A) (A) (A) (A) (A) (A) (A)
                 (A) (A) (A) (A) (A) (A) (A) (A) (A) (A) (A) (A)
                 (A) (A) (A) (A) (A) (A) (A) (A) (A) (A) (A) (A)
                 (A) (A) (A) (A) (A) (A) (A) (A) (A) (A) (A) (A)
                 (A) (A) (A) (A) (A) (A) (A) (A) (A) (A) (A) (A)
                 (A) (A) (A) (A) (A) (A) (A) (A) (A) (A) (A) (A)
                 (A) (A) (A) (A) (A) (A) (A) (A) (A) (A) (A) (A)
                 (A) (A) (A) (A) (A) (A) (A) (A) (A) (A) (A) (A)
                 (A) (A) (A) (A) (A) (A) (A) (A) (A) (A) (A) (A)
                 (A) (A) (A) (A) (A) (A) (A) (A) (A) (A) (A) (A)
                 (A) (A) (A) (A) (A) (A) (A) (A) (A) (A) (A) (A)
                 (A) (A) (A) (A) (A) (A) (A) (A) (A) (A) (A) (A)
                 (A) (A) (A) (A) (A) (A) (A) (A) (A) (A) (A) (A)
                 (A) (A) (A) (A) (A) (A) (A) (A) (A) (A) (A) (A)
                 (A) (A) (A) (A) (A) (A) (A) (A) (A) (A) (A) (A)
                 (A) (A) (A) (A) (A) (A) (A) (A) (A) (A) (A) (A)
                 (A) (A) (A) (A) (A) (A) (A) (A) (A) (A) (A) (A)
                 (A) (A) (A) (A) (A) (A) (A) (A) (A) (A) (A) (A)
                 (A) (A) (A) (A) (A) (A) (A) (A) (A) (A) (A) (A)
                 (A) (A) (A) (A) (A) (A) (A) (A) (A) (A) (A) (A)
                 (A) (A) (A) (A) (A) (A) (A) (A) (A) (A) (A) (A)
                 (A) (A) (A) (A) (A) (A) (A) (A) (A) (A) (A) (A)
                 (A) (A) (A) (A) (A) (A) (A) (A) (A) (A) (A) (A)
                 (A) (A) (A) (A) (A) (A) (A) (A) (A) (A) (A) (A)
                 (A) (A) (A) (A) (A) (A) (A) (A) (A) (A) (A) (A)
                 (A) (A) (A) (A) (A) (A) (A) (A) (A) (A) (A) (A)
                 (A) (A) (A) (A) (A) (A) (A) (A)
 The electronic state is 1-A.
 Alpha  occ. eigenvalues --  -77.25328 -19.25984 -19.15442 -19.14255 -14.44248
 Alpha  occ. eigenvalues --  -14.43064 -10.31505 -10.29513 -10.29041 -10.26596
 Alpha  occ. eigenvalues --  -10.25834 -10.25485 -10.25310 -10.25209 -10.24847
 Alpha  occ. eigenvalues --  -10.24784 -10.24572 -10.24108 -10.21845 -10.21835
 Alpha  occ. eigenvalues --  -10.21770 -10.21678 -10.21637 -10.21524 -10.20765
 Alpha  occ. eigenvalues --  -10.20674  -6.63280  -4.76918  -4.76838  -4.76608
 Alpha  occ. eigenvalues --   -3.04110  -1.88034  -1.86785  -1.86520  -1.12471
 Alpha  occ. eigenvalues --   -1.00894  -0.96562  -0.93094  -0.91997  -0.85113
 Alpha  occ. eigenvalues --   -0.83899  -0.83333  -0.82588  -0.77484  -0.76921
 Alpha  occ. eigenvalues --   -0.74066  -0.70471  -0.70296  -0.70041  -0.69516
 Alpha  occ. eigenvalues --   -0.69054  -0.65990  -0.65839  -0.63126  -0.61962
 Alpha  occ. eigenvalues --   -0.57369  -0.56755  -0.55957  -0.53321  -0.52953
 Alpha  occ. eigenvalues --   -0.51821  -0.50861  -0.50192  -0.48217  -0.47490
 Alpha  occ. eigenvalues --   -0.46923  -0.45993  -0.45639  -0.45348  -0.45080
 Alpha  occ. eigenvalues --   -0.44917  -0.44291  -0.44108  -0.43665  -0.43348
 Alpha  occ. eigenvalues --   -0.43201  -0.42691  -0.42270  -0.41573  -0.41297
 Alpha  occ. eigenvalues --   -0.40823  -0.39915  -0.39378  -0.39067  -0.38680
 Alpha  occ. eigenvalues --   -0.38302  -0.38195  -0.37919  -0.37814  -0.36756
 Alpha  occ. eigenvalues --   -0.36420  -0.36287  -0.35809  -0.35482  -0.34607
 Alpha  occ. eigenvalues --   -0.34546  -0.34090  -0.33555  -0.33419  -0.32870
 Alpha  occ. eigenvalues --   -0.32626  -0.31781  -0.31393  -0.30155  -0.29487
 Alpha  occ. eigenvalues --   -0.28696  -0.27891  -0.27275  -0.26534  -0.26380
 Alpha  occ. eigenvalues --   -0.22197  -0.21130  -0.19283
 Alpha virt. eigenvalues --   -0.03782  -0.01758   0.00173   0.00936   0.01973
 Alpha virt. eigenvalues --    0.02578   0.03466   0.03881   0.03907   0.05660
 Alpha virt. eigenvalues --    0.06933   0.08976   0.09370   0.09631   0.09721
 Alpha virt. eigenvalues --    0.10224   0.10967   0.11517   0.11839   0.11952
 Alpha virt. eigenvalues --    0.12140   0.12816   0.13239   0.13457   0.13871
 Alpha virt. eigenvalues --    0.14131   0.14634   0.14727   0.14893   0.15558
 Alpha virt. eigenvalues --    0.15645   0.16122   0.16738   0.16952   0.17292
 Alpha virt. eigenvalues --    0.18129   0.18338   0.18434   0.18665   0.18842
 Alpha virt. eigenvalues --    0.19247   0.19758   0.20190   0.20789   0.20928
 Alpha virt. eigenvalues --    0.21259   0.21288   0.21544   0.21839   0.22134
 Alpha virt. eigenvalues --    0.22332   0.22658   0.23024   0.23158   0.23663
 Alpha virt. eigenvalues --    0.24214   0.24297   0.24963   0.25507   0.26092
 Alpha virt. eigenvalues --    0.26424   0.27020   0.27773   0.28424   0.28950
 Alpha virt. eigenvalues --    0.29570   0.29840   0.31078   0.32026   0.32486
 Alpha virt. eigenvalues --    0.32642   0.33012   0.34138   0.35190   0.35730
 Alpha virt. eigenvalues --    0.37371   0.38019   0.38701   0.40667   0.41916
 Alpha virt. eigenvalues --    0.42319   0.43058   0.43571   0.44375   0.45061
 Alpha virt. eigenvalues --    0.45623   0.45858   0.47116   0.47612   0.48137
 Alpha virt. eigenvalues --    0.48764   0.49613   0.49865   0.50388   0.50593
 Alpha virt. eigenvalues --    0.51463   0.51808   0.52981   0.53507   0.54091
 Alpha virt. eigenvalues --    0.54511   0.54877   0.55585   0.55828   0.56332
 Alpha virt. eigenvalues --    0.57016   0.58090   0.58770   0.59024   0.59378
 Alpha virt. eigenvalues --    0.60271   0.60487   0.60981   0.61567   0.61853
 Alpha virt. eigenvalues --    0.62326   0.62678   0.63091   0.63453   0.64004
 Alpha virt. eigenvalues --    0.64491   0.64662   0.64942   0.65095   0.65531
 Alpha virt. eigenvalues --    0.66075   0.66334   0.66422   0.66685   0.66936
 Alpha virt. eigenvalues --    0.67029   0.67642   0.67937   0.68247   0.68367
 Alpha virt. eigenvalues --    0.68862   0.68960   0.69394   0.69582   0.69889
 Alpha virt. eigenvalues --    0.70530   0.70802   0.71634   0.72145   0.72559
 Alpha virt. eigenvalues --    0.72964   0.73382   0.73720   0.74016   0.74135
 Alpha virt. eigenvalues --    0.74457   0.74969   0.75390   0.75814   0.76090
 Alpha virt. eigenvalues --    0.76267   0.76586   0.77741   0.78083   0.78629
 Alpha virt. eigenvalues --    0.78829   0.79407   0.79797   0.80154   0.80561
 Alpha virt. eigenvalues --    0.81185   0.81634   0.82837   0.83067   0.83829
 Alpha virt. eigenvalues --    0.84385   0.85060   0.85524   0.86560   0.86840
 Alpha virt. eigenvalues --    0.87356   0.88017   0.88871   0.89140   0.89951
 Alpha virt. eigenvalues --    0.90821   0.91121   0.91634   0.91978   0.92524
 Alpha virt. eigenvalues --    0.93148   0.93520   0.94788   0.95392   0.96281
 Alpha virt. eigenvalues --    0.96790   0.97549   0.98342   0.98968   0.99788
 Alpha virt. eigenvalues --    1.00409   1.00722   1.00892   1.01737   1.02898
 Alpha virt. eigenvalues --    1.03788   1.04545   1.05368   1.06088   1.07002
 Alpha virt. eigenvalues --    1.08069   1.09191   1.10283   1.11251   1.12416
 Alpha virt. eigenvalues --    1.13180   1.14273   1.15056   1.15598   1.16908
 Alpha virt. eigenvalues --    1.17317   1.18091   1.19332   1.20052   1.20713
 Alpha virt. eigenvalues --    1.22097   1.23060   1.24897   1.25464   1.25873
 Alpha virt. eigenvalues --    1.27026   1.27704   1.28601   1.29085   1.29963
 Alpha virt. eigenvalues --    1.30292   1.31541   1.32265   1.33369   1.33574
 Alpha virt. eigenvalues --    1.34593   1.34917   1.35455   1.36081   1.36956
 Alpha virt. eigenvalues --    1.37803   1.38475   1.38585   1.40195   1.40539
 Alpha virt. eigenvalues --    1.40633   1.41703   1.42211   1.42442   1.43578
 Alpha virt. eigenvalues --    1.43965   1.44147   1.44841   1.45553   1.45927
 Alpha virt. eigenvalues --    1.46395   1.46634   1.47015   1.47353   1.47581
 Alpha virt. eigenvalues --    1.48756   1.48915   1.49627   1.50261   1.50517
 Alpha virt. eigenvalues --    1.51687   1.52130   1.52996   1.53119   1.54040
 Alpha virt. eigenvalues --    1.54640   1.55099   1.55512   1.55915   1.57163
 Alpha virt. eigenvalues --    1.58170   1.58936   1.59029   1.60343   1.61243
 Alpha virt. eigenvalues --    1.61810   1.62586   1.63140   1.63223   1.63269
 Alpha virt. eigenvalues --    1.64071   1.64660   1.65984   1.66086   1.66943
 Alpha virt. eigenvalues --    1.67583   1.67823   1.68006   1.68616   1.69038
 Alpha virt. eigenvalues --    1.69481   1.69674   1.70158   1.70748   1.70806
 Alpha virt. eigenvalues --    1.71452   1.72011   1.72088   1.72660   1.73071
 Alpha virt. eigenvalues --    1.73427   1.74278   1.74299   1.74717   1.75593
 Alpha virt. eigenvalues --    1.76120   1.76830   1.77067   1.77365   1.77493
 Alpha virt. eigenvalues --    1.77852   1.78261   1.78391   1.79305   1.80016
 Alpha virt. eigenvalues --    1.80322   1.80667   1.81533   1.81868   1.82436
 Alpha virt. eigenvalues --    1.82725   1.83364   1.84019   1.84406   1.85411
 Alpha virt. eigenvalues --    1.85724   1.86114   1.87126   1.87482   1.88284
 Alpha virt. eigenvalues --    1.88626   1.88901   1.89661   1.90151   1.90591
 Alpha virt. eigenvalues --    1.91320   1.92011   1.92563   1.93704   1.93885
 Alpha virt. eigenvalues --    1.94400   1.95691   1.96337   1.97594   1.98014
 Alpha virt. eigenvalues --    1.98915   1.99577   2.00152   2.00811   2.01265
 Alpha virt. eigenvalues --    2.02063   2.02613   2.03269   2.03993   2.04491
 Alpha virt. eigenvalues --    2.05008   2.05386   2.06618   2.07222   2.07593
 Alpha virt. eigenvalues --    2.07981   2.08695   2.09579   2.09614   2.10515
 Alpha virt. eigenvalues --    2.11337   2.11895   2.12325   2.13113   2.14412
 Alpha virt. eigenvalues --    2.14787   2.16390   2.17158   2.18519   2.19786
 Alpha virt. eigenvalues --    2.20542   2.20954   2.22816   2.23198   2.23810
 Alpha virt. eigenvalues --    2.25306   2.25588   2.26294   2.26559   2.26955
 Alpha virt. eigenvalues --    2.27421   2.27671   2.28371   2.29199   2.30659
 Alpha virt. eigenvalues --    2.31089   2.32683   2.33820   2.34262   2.36285
 Alpha virt. eigenvalues --    2.40255   2.40965   2.41983   2.42082   2.42715
 Alpha virt. eigenvalues --    2.43023   2.43337   2.43549   2.44035   2.44713
 Alpha virt. eigenvalues --    2.45786   2.46526   2.46925   2.47531   2.48328
 Alpha virt. eigenvalues --    2.48667   2.50029   2.50424   2.50637   2.51192
 Alpha virt. eigenvalues --    2.51567   2.52772   2.53019   2.53153   2.54310
 Alpha virt. eigenvalues --    2.54907   2.55794   2.56139   2.56772   2.57128
 Alpha virt. eigenvalues --    2.57736   2.58312   2.58950   2.59515   2.60328
 Alpha virt. eigenvalues --    2.61808   2.62371   2.63117   2.64315   2.64685
 Alpha virt. eigenvalues --    2.66463   2.67418   2.68469   2.69737   2.70187
 Alpha virt. eigenvalues --    2.71006   2.71825   2.73940   2.74757   2.75759
 Alpha virt. eigenvalues --    2.77322   2.79552   2.80656   2.82543   2.82847
 Alpha virt. eigenvalues --    2.84187   2.85219   2.85608   2.91460   2.93303
 Alpha virt. eigenvalues --    2.98088   3.01778   3.04718   3.05289   3.09394
 Alpha virt. eigenvalues --    3.11973   3.13257   3.16489   3.50865   3.58502
 Alpha virt. eigenvalues --    3.82394   3.86386  34.90979  34.98571  35.08725
 Alpha virt. eigenvalues --   46.02717
          Condensed to atoms (all electrons):
 Mulliken charges:
               1
     1  N   -0.317044
     2  C    0.037346
     3  C    0.064809
     4  C   -0.048607
     5  C    0.080998
     6  C   -0.044296
     7  C    0.121550
     8  H    0.035267
     9  H    0.047375
    10  H    0.035444
    11  C   -0.077001
    12  N   -0.381246
    13  H    0.070583
    14  H    0.114895
    15  H    0.136949
    16  P    0.249336
    17  H    0.092248
    18  Ru  -0.045043
    19  C   -0.026594
    20  C   -0.467656
    21  C   -0.001800
    22  C   -0.454896
    23  C   -0.012125
    24  C   -0.019759
    25  C   -0.001556
    26  C   -0.023857
    27  C   -0.001383
    28  C   -0.019089
    29  C   -0.005710
    30  O   -0.188232
    31  H    0.111625
    32  C   -0.076160
    33  H    0.100659
    34  H    0.076937
    35  C   -0.121903
    36  H    0.048618
    37  O   -0.472942
    38  H    0.182898
    39  O   -0.479286
    40  H    0.195800
    41  H    0.096981
    42  H    0.056860
    43  H    0.056119
    44  H    0.059650
    45  H    0.062152
    46  H    0.059890
    47  H    0.038222
    48  H    0.061445
    49  H    0.086585
    50  H    0.050930
    51  H    0.077064
    52  H    0.065939
    53  H    0.046515
    54  H    0.045081
    55  H    0.057400
    56  H    0.064628
    57  H    0.048619
    58  H    0.059541
    59  H    0.047486
    60  H    0.076945
    61  H    0.049347
    62  H    0.050654
    63  H    0.099140
    64  H    0.065652
 Sum of Mulliken charges =  -0.00000
 Mulliken charges with hydrogens summed into heavy atoms:
               1
     1  N   -0.317044
     2  C    0.037346
     3  C    0.064809
     4  C   -0.013340
     5  C    0.128374
     6  C   -0.008852
     7  C    0.307027
    11  C    0.152196
    12  N   -0.381246
    16  P    0.249336
    18  Ru  -0.045043
    19  C    0.185690
    20  C   -0.467656
    21  C    0.123756
    22  C   -0.454896
    23  C    0.174128
    24  C    0.174174
    25  C    0.147440
    26  C    0.191589
    27  C    0.171405
    28  C    0.154690
    29  C   -0.005710
    30  O   -0.188232
    32  C    0.105531
    35  C    0.088057
    37  O   -0.290045
    39  O   -0.283485
 Electronic spatial extent (au):  <R**2>=           9701.8817
 Charge=             -0.0000 electrons
 Dipole moment (field-independent basis, Debye):
    X=              1.2929    Y=              9.7383    Z=              1.7843  Tot=              9.9844
 Quadrupole moment (field-independent basis, Debye-Ang):
   XX=           -150.6045   YY=           -176.0611   ZZ=           -201.2159
   XY=             -7.6622   XZ=             -4.9624   YZ=             -3.5492
 Traceless Quadrupole moment (field-independent basis, Debye-Ang):
   XX=             25.3560   YY=             -0.1006   ZZ=            -25.2554
   XY=             -7.6622   XZ=             -4.9624   YZ=             -3.5492
 Octapole moment (field-independent basis, Debye-Ang**2):
  XXX=            -57.9952  YYY=             81.5327  ZZZ=             -7.4118  XYY=            -17.4245
  XXY=              6.2782  XXZ=             10.4928  XZZ=              5.3553  YZZ=             -2.6282
  YYZ=             -6.6137  XYZ=             -2.7152
 Hexadecapole moment (field-independent basis, Debye-Ang**3):
 XXXX=          -6851.4729 YYYY=          -3253.4316 ZZZZ=          -2415.8194 XXXY=            -44.7392
 XXXZ=            -27.9031 YYYX=           -130.0794 YYYZ=           -146.1057 ZZZX=              9.8095
 ZZZY=             45.7479 XXYY=          -1686.1162 XXZZ=          -1533.2105 YYZZ=           -986.7458
 XXYZ=             24.7166 YYXZ=            -25.9859 ZZXY=             26.6552
 N-N= 3.496791264099D+03 E-N=-1.060941193140D+04  KE= 1.485329504839D+03
 1\1\GINC-NODE132\SP\RPBE1PBE TD-FC\GenECP\C20H37N2O3P1Ru1\JS1212\20-Au
 g-2020\0\\# genecp pbe1pbe EmpiricalDispersion=GD3BJ scrf=(SMD,solvent
 =water) td=nstates=25 geom=allcheck\\Title Card Required\\0,1\N,0,-0.7
 103586598,1.4138658936,-0.0573020856\C,0,-1.930414302,1.8808839061,0.2
 627802141\C,0,0.1991761598,2.2047100174,-0.6601932211\C,0,-2.271053555
 4,3.2103290961,0.0511196334\C,0,-1.3202204587,4.0630669224,-0.50604725
 74\C,0,-0.0796924817,3.5547038624,-0.8732391261\C,0,-2.8446624985,0.85
 65594112,0.8630884121\H,0,-3.2673211898,3.5660583163,0.3154492244\H,0,
 -1.5552362623,5.1153966463,-0.6751335434\H,0,0.6702711501,4.1907102343
 ,-1.3446154101\C,0,1.4580827211,1.5437445969,-1.1278315352\N,0,-2.7248
 314753,-0.4458490487,0.1814321959\H,0,-3.8846556812,1.2259674467,0.871
 4416006\H,0,-2.5470506275,0.7015637772,1.9130332925\H,0,1.2390991707,1
 .1564148959,-2.1381362981\P,0,1.789237894,-0.0257467819,-0.1707292555\
 H,0,2.3001250498,2.2485099419,-1.1763669325\Ru,0,-0.4008336471,-0.6118
 992662,0.0859203786\C,0,-3.2882435927,-0.3869486441,-1.185462885\C,0,2
 .9655536656,-1.0088594062,-1.300071322\C,0,-3.3856929928,-1.4714690845
 ,1.0198863898\C,0,2.7286197897,0.5866088635,1.3710430313\C,0,2.1040257
 934,-1.7558235467,-2.3211614054\C,0,3.7160943276,-2.0545096106,-0.4733
 835022\C,0,3.9558465263,-0.1169121083,-2.0521085897\C,0,1.8763302673,1
 .6863725748,2.0162749875\C,0,4.0978332559,1.184893149,1.0448687546\C,0
 ,2.9003563251,-0.5493972678,2.3839629444\C,0,-0.3900404705,-0.82789369
 31,1.9045038816\O,0,-0.4507099457,-1.0140112306,3.0563170899\H,0,-2.69
 5068182,0.3507827229,-1.7410416515\C,0,-4.7796656098,-0.1074636218,-1.
 2874231943\H,0,-3.0428711736,-1.3439224308,-1.6613345837\H,0,-2.847577
 3525,-1.4810112287,1.9789590929\C,0,-3.359704283,-2.8567685277,0.41013
 32754\H,0,-4.4232144703,-1.1506920996,1.2423924387\O,0,-0.3318179868,-
 2.6287659702,-0.3196849311\H,0,0.2155440134,-3.1006745459,0.3181695539
 \O,0,-0.5462891117,-0.4188943149,-1.9592119628\H,0,-0.5313752414,-1.34
 67462079,-2.2325756181\H,0,-2.3312988541,-3.0938451462,0.0849005961\H,
 0,-4.0459914365,-2.9491527496,-0.4452770553\H,0,-3.6810597782,-3.58695
 5902,1.1681868065\H,0,-5.0613929724,-0.1012676984,-2.3511311979\H,0,-5
 .0645274426,0.873954146,-0.8771682579\H,0,-5.3939429165,-0.8743861281,
 -0.7915744073\H,0,2.7717395287,-2.3696834446,-2.9496803066\H,0,1.54472
 18402,-1.0650370296,-2.9653966517\H,0,1.3708321762,-2.4012111034,-1.81
 27375179\H,0,4.2430259214,-2.7342360432,-1.1630533202\H,0,3.0252393568
 ,-2.6657926475,0.1269200781\H,0,4.4705099694,-1.6154855216,0.193714619
 8\H,0,4.5867689974,-0.7582864109,-2.6903511286\H,0,4.6244857204,0.4523
 25546,-1.3944543167\H,0,3.4403207913,0.5885367826,-2.7198807884\H,0,4.
 8145343573,0.4305257004,0.6941248517\H,0,4.5171189456,1.631196341,1.96
 21838509\H,0,4.0389137635,1.9852403614,0.2917116893\H,0,3.578053402,-1
 .3333473408,2.0261246386\H,0,1.9441443161,-1.0155104394,2.6488784257\H
 ,0,3.3340104137,-0.1346887054,3.3094308291\H,0,2.3487171007,1.98377884
 37,2.9667687399\H,0,0.856101689,1.3470713286,2.238178495\H,0,1.8128702
 529,2.5858736223,1.386279247\\Version=ES64L-G16RevA.03\State=1-A\HF=-1
 554.6883264\RMSD=2.429e-09\PG=C01 [X(C20H37N2O3P1Ru1)]\\@


 WE DON'T KNOW ONE MILLIONTH OF ONE PERCENT ABOUT
 ANYTHING.
                                     T. A. EDISON.
 Job cpu time:       0 days 15 hours 53 minutes 10.5 seconds.
 Elapsed time:       0 days  0 hours 59 minutes 44.3 seconds.
 File lengths (MBytes):  RWF=   4620 Int=      0 D2E=      0 Chk=    378 Scr=      1
 Normal termination of Gaussian 16 at Thu Aug 20 15:21:23 2020.
