 Entering Gaussian System, Link 0=g16
 Initial command:
 /cluster/chemistry/gaussian/g16/l1.exe "/scratch/js1212.747568/scratch/Gau-12856.inp" -scrdir="/scratch/js1212.747568/scratch/"
 Entering Link 1 = /cluster/chemistry/gaussian/g16/l1.exe PID=     12857.
  
 Copyright (c) 1988,1990,1992,1993,1995,1998,2003,2009,2016,
            Gaussian, Inc.  All Rights Reserved.
  
 This is part of the Gaussian(R) 16 program.  It is based on
 the Gaussian(R) 09 system (copyright 2009, Gaussian, Inc.),
 the Gaussian(R) 03 system (copyright 2003, Gaussian, Inc.),
 the Gaussian(R) 98 system (copyright 1998, Gaussian, Inc.),
 the Gaussian(R) 94 system (copyright 1995, Gaussian, Inc.),
 the Gaussian 92(TM) system (copyright 1992, Gaussian, Inc.),
 the Gaussian 90(TM) system (copyright 1990, Gaussian, Inc.),
 the Gaussian 88(TM) system (copyright 1988, Gaussian, Inc.),
 the Gaussian 86(TM) system (copyright 1986, Carnegie Mellon
 University), and the Gaussian 82(TM) system (copyright 1983,
 Carnegie Mellon University). Gaussian is a federally registered
 trademark of Gaussian, Inc.
  
 This software contains proprietary and confidential information,
 including trade secrets, belonging to Gaussian, Inc.
  
 This software is provided under written license and may be
 used, copied, transmitted, or stored only in accord with that
 written license.
  
 The following legend is applicable only to US Government
 contracts under FAR:
  
                    RESTRICTED RIGHTS LEGEND
  
 Use, reproduction and disclosure by the US Government is
 subject to restrictions as set forth in subparagraphs (a)
 and (c) of the Commercial Computer Software - Restricted
 Rights clause in FAR 52.227-19.
  
 Gaussian, Inc.
 340 Quinnipiac St., Bldg. 40, Wallingford CT 06492
  
  
 ---------------------------------------------------------------
 Warning -- This program may not be used in any manner that
 competes with the business of Gaussian, Inc. or will provide
 assistance to any competitor of Gaussian, Inc.  The licensee
 of this program is prohibited from giving any competitor of
 Gaussian, Inc. access to this program.  By using this program,
 the user acknowledges that Gaussian, Inc. is engaged in the
 business of creating and licensing software in the field of
 computational chemistry and represents and warrants to the
 licensee that it is not a competitor of Gaussian, Inc. and that
 it will not use this program in any manner prohibited above.
 ---------------------------------------------------------------
  

 Cite this work as:
 Gaussian 16, Revision A.03,
 M. J. Frisch, G. W. Trucks, H. B. Schlegel, G. E. Scuseria, 
 M. A. Robb, J. R. Cheeseman, G. Scalmani, V. Barone, 
 G. A. Petersson, H. Nakatsuji, X. Li, M. Caricato, A. V. Marenich, 
 J. Bloino, B. G. Janesko, R. Gomperts, B. Mennucci, H. P. Hratchian, 
 J. V. Ortiz, A. F. Izmaylov, J. L. Sonnenberg, D. Williams-Young, 
 F. Ding, F. Lipparini, F. Egidi, J. Goings, B. Peng, A. Petrone, 
 T. Henderson, D. Ranasinghe, V. G. Zakrzewski, J. Gao, N. Rega, 
 G. Zheng, W. Liang, M. Hada, M. Ehara, K. Toyota, R. Fukuda, 
 J. Hasegawa, M. Ishida, T. Nakajima, Y. Honda, O. Kitao, H. Nakai, 
 T. Vreven, K. Throssell, J. A. Montgomery, Jr., J. E. Peralta, 
 F. Ogliaro, M. J. Bearpark, J. J. Heyd, E. N. Brothers, K. N. Kudin, 
 V. N. Staroverov, T. A. Keith, R. Kobayashi, J. Normand, 
 K. Raghavachari, A. P. Rendell, J. C. Burant, S. S. Iyengar, 
 J. Tomasi, M. Cossi, J. M. Millam, M. Klene, C. Adamo, R. Cammi, 
 J. W. Ochterski, R. L. Martin, K. Morokuma, O. Farkas, 
 J. B. Foresman, and D. J. Fox, Gaussian, Inc., Wallingford CT, 2016.
 
 ******************************************
 Gaussian 16:  ES64L-G16RevA.03 25-Dec-2016
                 7-Jun-2020 
 ******************************************
 %rwf=/scratch/js1212.747568/GMe-Mono-D-0-OO-Scan-Shorten.rwf
 %nosave
 %nprocshared=20
 Will use up to   20 processors via shared memory.
 %mem=3000MB
 %oldchk=/data/js1212/200607_g16/GMe-Mono-D-0-GPOF.chk
 %chk=/scratch/js1212.747568/GMe-Mono-D-0-OO-Scan-Shorten.chk
 Copying data from "/data/js1212/200607_g16/GMe-Mono-D-0-GPOF.chk" to current chk file "/scratch/js1212.747568/GMe-Mono-D-0-OO-Scan-Shorten.chk"
 IOpt=  2 FromEx=T IUOpen= 4 IOptOp= 5 NList=   0 IFRang= 0 IUIn= 4 IUOut= 2.
 ----------------------------------------------------------------------
 # opt=ModRedundant genecp pbe1pbe EmpiricalDispersion=GD3BJ NoSymm Geo
 m=AllCheck
 ----------------------------------------------------------------------
 1/18=120,19=15,26=3,29=7,38=1/1,3;
 2/9=110,12=2,15=1,40=1/2;
 3/5=7,11=2,14=-4,16=1,17=8,25=1,30=1,71=1,74=-13,124=41/1,2,3;
 4//1;
 5/5=2,38=5/2;
 6/7=2,8=2,9=2,10=2,28=1/1;
 7/30=1/1,2,3,16;
 1/18=20,19=15,26=3/3(2);
 2/9=110,15=1/2;
 99//99;
 2/9=110,15=1/2;
 3/5=7,6=1,11=2,14=-2,16=1,17=8,25=1,30=1,71=1,74=-13,82=7,124=41/1,2,3;
 4/5=5,16=3,69=1/1;
 5/5=2,38=5/2;
 7/30=1/1,2,3,16;
 1/18=20,19=15,26=3/3(-5);
 2/9=110,15=1/2;
 6/7=2,8=2,9=2,10=2,19=2,28=1/1;
 99/9=1/99;
 Structure from the checkpoint file:  "/scratch/js1212.747568/GMe-Mono-D-0-OO-Scan-Shorten.chk"
 -------------------
 Title Card Required
 -------------------
 Charge =  0 Multiplicity = 2
 Redundant internal coordinates found in file.  (old form).
 O,0,-0.2567610163,-2.2854994232,1.0040634092
 O,0,-0.4132678573,0.204900126,2.0320724154
 C,0,-3.1471653685,-1.2187810901,1.4699395092
 H,0,-2.4066010927,1.1218571514,1.776192229
 N,0,-2.6651591862,-0.3703038202,0.3744573385
 C,0,-2.7981224045,1.0503167495,0.7473618575
 C,0,2.5637831443,0.5680083923,1.3561762624
 C,0,2.9300387091,-1.10208323,-0.9930204321
 P,0,1.7143881111,-0.0466892482,-0.1327458743
 H,0,-3.8531521071,1.3764039809,0.7136747681
 C,0,-3.4127622675,-0.6471836098,-0.8538257238
 C,0,-0.4965534277,-1.3498394612,-1.5592596295
 C,0,-1.9138808431,1.9465087438,-0.0701274775
 N,0,-0.7379961737,1.4000700243,-0.4296331861
 C,0,1.5254485982,1.430496143,-1.2655995671
 C,0,0.2420188994,2.1524290616,-0.9681799584
 C,0,-2.187938394,3.2846398711,-0.3279839489
 H,0,-3.1540195031,3.7063171837,-0.0479668101
 H,0,1.4706941213,1.0035190687,-2.2831120012
 H,0,2.3888792144,2.1122937676,-1.2378300343
 C,0,0.0368416567,3.5069288406,-1.2157538752
 C,0,-1.1991290673,4.0726417958,-0.9122131027
 H,0,0.83802598,4.1071463656,-1.6483530875
 H,0,-1.3846382576,5.1287160356,-1.1151146164
 O,0,-0.4744189229,-1.8342706456,-2.6158665237
 H,0,-0.1865437261,-0.6038770776,2.5186682167
 H,0,3.4582723945,1.1581353921,1.1087314904
 H,0,2.8455703195,-0.3037784262,1.9647803189
 H,0,1.8193932228,1.1428577194,1.9261272283
 H,0,2.501639547,-1.4388982807,-1.9474302084
 H,0,3.1071636262,-1.9876067346,-0.3657742099
 H,0,3.8802286928,-0.5758549714,-1.1683843676
 H,0,-2.994136675,-2.2695032761,1.1937443934
 H,0,-4.2183862923,-1.0308412767,1.6728019167
 H,0,-2.5405997149,-0.9971880382,2.3560610907
 H,0,-3.0481674859,0.0001281689,-1.6629933723
 H,0,-4.4943454034,-0.4667237079,-0.7044112631
 H,0,-3.2575654476,-1.6935264878,-1.145211474
 Ru,0,-0.4576956025,-0.5986657766,0.1251982996
 Recover connectivity data from disk.
 The following ModRedundant input section has been read:
 B       1       2 S   5 -0.250                                                
 

 GradGradGradGradGradGradGradGradGradGradGradGradGradGradGradGradGradGrad
 Berny optimization.
 Initialization pass.
                           ----------------------------
                           !    Initial Parameters    !
                           ! (Angstroms and Degrees)  !
 --------------------------                            --------------------------
 ! Name  Definition              Value          Derivative Info.                !
 --------------------------------------------------------------------------------
 ! R1    R(1,2)                  2.6988         Scan                            !
 ! R2    R(1,39)                 1.9126         estimate D2E/DX2                !
 ! R3    R(2,26)                 0.9707         estimate D2E/DX2                !
 ! R4    R(2,39)                 2.0697         estimate D2E/DX2                !
 ! R5    R(3,5)                  1.4671         estimate D2E/DX2                !
 ! R6    R(3,33)                 1.0971         estimate D2E/DX2                !
 ! R7    R(3,34)                 1.1063         estimate D2E/DX2                !
 ! R8    R(3,35)                 1.0965         estimate D2E/DX2                !
 ! R9    R(4,6)                  1.1031         estimate D2E/DX2                !
 ! R10   R(5,6)                  1.4748         estimate D2E/DX2                !
 ! R11   R(5,11)                 1.4643         estimate D2E/DX2                !
 ! R12   R(6,10)                 1.1048         estimate D2E/DX2                !
 ! R13   R(6,13)                 1.5011         estimate D2E/DX2                !
 ! R14   R(7,9)                  1.821          estimate D2E/DX2                !
 ! R15   R(7,27)                 1.0998         estimate D2E/DX2                !
 ! R16   R(7,28)                 1.0999         estimate D2E/DX2                !
 ! R17   R(7,29)                 1.0997         estimate D2E/DX2                !
 ! R18   R(8,9)                  1.8253         estimate D2E/DX2                !
 ! R19   R(8,30)                 1.099          estimate D2E/DX2                !
 ! R20   R(8,31)                 1.0995         estimate D2E/DX2                !
 ! R21   R(8,32)                 1.1002         estimate D2E/DX2                !
 ! R22   R(9,15)                 1.8711         estimate D2E/DX2                !
 ! R23   R(9,39)                 2.2559         estimate D2E/DX2                !
 ! R24   R(11,36)                1.0985         estimate D2E/DX2                !
 ! R25   R(11,37)                1.1067         estimate D2E/DX2                !
 ! R26   R(11,38)                1.0972         estimate D2E/DX2                !
 ! R27   R(12,25)                1.1626         estimate D2E/DX2                !
 ! R28   R(12,39)                1.8448         estimate D2E/DX2                !
 ! R29   R(13,14)                1.3456         estimate D2E/DX2                !
 ! R30   R(13,17)                1.39           estimate D2E/DX2                !
 ! R31   R(14,16)                1.3478         estimate D2E/DX2                !
 ! R32   R(14,39)                2.0932         estimate D2E/DX2                !
 ! R33   R(15,16)                1.5023         estimate D2E/DX2                !
 ! R34   R(15,19)                1.1048         estimate D2E/DX2                !
 ! R35   R(15,20)                1.1005         estimate D2E/DX2                !
 ! R36   R(16,21)                1.3921         estimate D2E/DX2                !
 ! R37   R(17,18)                1.0907         estimate D2E/DX2                !
 ! R38   R(17,22)                1.3928         estimate D2E/DX2                !
 ! R39   R(21,22)                1.3928         estimate D2E/DX2                !
 ! R40   R(21,23)                1.0906         estimate D2E/DX2                !
 ! R41   R(22,24)                1.0913         estimate D2E/DX2                !
 ! A1    A(26,2,39)             98.2427         estimate D2E/DX2                !
 ! A2    A(5,3,33)             108.6673         estimate D2E/DX2                !
 ! A3    A(5,3,34)             110.9033         estimate D2E/DX2                !
 ! A4    A(5,3,35)             107.7477         estimate D2E/DX2                !
 ! A5    A(33,3,34)            110.1147         estimate D2E/DX2                !
 ! A6    A(33,3,35)            108.6529         estimate D2E/DX2                !
 ! A7    A(34,3,35)            110.6784         estimate D2E/DX2                !
 ! A8    A(3,5,6)              109.7965         estimate D2E/DX2                !
 ! A9    A(3,5,11)             110.4414         estimate D2E/DX2                !
 ! A10   A(6,5,11)             110.3779         estimate D2E/DX2                !
 ! A11   A(4,6,5)              105.4442         estimate D2E/DX2                !
 ! A12   A(4,6,10)             110.3791         estimate D2E/DX2                !
 ! A13   A(4,6,13)             105.0774         estimate D2E/DX2                !
 ! A14   A(5,6,10)             111.2669         estimate D2E/DX2                !
 ! A15   A(5,6,13)             112.5997         estimate D2E/DX2                !
 ! A16   A(10,6,13)            111.6976         estimate D2E/DX2                !
 ! A17   A(9,7,27)             112.1183         estimate D2E/DX2                !
 ! A18   A(9,7,28)             107.7195         estimate D2E/DX2                !
 ! A19   A(9,7,29)             106.5269         estimate D2E/DX2                !
 ! A20   A(27,7,28)            109.9628         estimate D2E/DX2                !
 ! A21   A(27,7,29)            112.7458         estimate D2E/DX2                !
 ! A22   A(28,7,29)            107.5146         estimate D2E/DX2                !
 ! A23   A(9,8,30)             109.0795         estimate D2E/DX2                !
 ! A24   A(9,8,31)             107.7032         estimate D2E/DX2                !
 ! A25   A(9,8,32)             111.9468         estimate D2E/DX2                !
 ! A26   A(30,8,31)            108.1422         estimate D2E/DX2                !
 ! A27   A(30,8,32)            110.1697         estimate D2E/DX2                !
 ! A28   A(31,8,32)            109.6941         estimate D2E/DX2                !
 ! A29   A(7,9,8)              105.657          estimate D2E/DX2                !
 ! A30   A(7,9,15)             105.9997         estimate D2E/DX2                !
 ! A31   A(7,9,39)             115.9893         estimate D2E/DX2                !
 ! A32   A(8,9,15)             103.7905         estimate D2E/DX2                !
 ! A33   A(8,9,39)             123.6188         estimate D2E/DX2                !
 ! A34   A(15,9,39)             99.507          estimate D2E/DX2                !
 ! A35   A(5,11,36)            109.6943         estimate D2E/DX2                !
 ! A36   A(5,11,37)            110.7867         estimate D2E/DX2                !
 ! A37   A(5,11,38)            109.3216         estimate D2E/DX2                !
 ! A38   A(36,11,37)           109.1318         estimate D2E/DX2                !
 ! A39   A(36,11,38)           108.626          estimate D2E/DX2                !
 ! A40   A(37,11,38)           109.245          estimate D2E/DX2                !
 ! A41   A(6,13,14)            114.6975         estimate D2E/DX2                !
 ! A42   A(6,13,17)            124.029          estimate D2E/DX2                !
 ! A43   A(14,13,17)           120.9089         estimate D2E/DX2                !
 ! A44   A(13,14,16)           121.0311         estimate D2E/DX2                !
 ! A45   A(13,14,39)           115.7209         estimate D2E/DX2                !
 ! A46   A(16,14,39)           122.7914         estimate D2E/DX2                !
 ! A47   A(9,15,16)            110.2297         estimate D2E/DX2                !
 ! A48   A(9,15,19)            104.9215         estimate D2E/DX2                !
 ! A49   A(9,15,20)            113.2405         estimate D2E/DX2                !
 ! A50   A(16,15,19)           109.0088         estimate D2E/DX2                !
 ! A51   A(16,15,20)           111.5653         estimate D2E/DX2                !
 ! A52   A(19,15,20)           107.5506         estimate D2E/DX2                !
 ! A53   A(14,16,15)           115.5982         estimate D2E/DX2                !
 ! A54   A(14,16,21)           120.4656         estimate D2E/DX2                !
 ! A55   A(15,16,21)           123.9362         estimate D2E/DX2                !
 ! A56   A(13,17,18)           119.9473         estimate D2E/DX2                !
 ! A57   A(13,17,22)           118.8467         estimate D2E/DX2                !
 ! A58   A(18,17,22)           121.1841         estimate D2E/DX2                !
 ! A59   A(16,21,22)           119.1587         estimate D2E/DX2                !
 ! A60   A(16,21,23)           119.8524         estimate D2E/DX2                !
 ! A61   A(22,21,23)           120.9877         estimate D2E/DX2                !
 ! A62   A(17,22,21)           119.4471         estimate D2E/DX2                !
 ! A63   A(17,22,24)           120.3187         estimate D2E/DX2                !
 ! A64   A(21,22,24)           120.2261         estimate D2E/DX2                !
 ! A65   A(1,39,2)              85.2279         estimate D2E/DX2                !
 ! A66   A(1,39,9)              99.6239         estimate D2E/DX2                !
 ! A67   A(1,39,12)             93.5929         estimate D2E/DX2                !
 ! A68   A(2,39,9)              89.4087         estimate D2E/DX2                !
 ! A69   A(2,39,14)             82.8975         estimate D2E/DX2                !
 ! A70   A(9,39,12)             90.8885         estimate D2E/DX2                !
 ! A71   A(9,39,14)             82.2406         estimate D2E/DX2                !
 ! A72   A(12,39,14)            98.2775         estimate D2E/DX2                !
 ! A73   L(25,12,39,8,-1)      177.7008         estimate D2E/DX2                !
 ! A74   L(1,39,14,2,-1)       168.1255         estimate D2E/DX2                !
 ! A75   L(2,39,12,1,-1)       178.8209         estimate D2E/DX2                !
 ! A76   L(25,12,39,8,-2)      180.6008         estimate D2E/DX2                !
 ! A77   L(1,39,14,2,-2)       181.9625         estimate D2E/DX2                !
 ! A78   L(2,39,12,1,-2)       179.8998         estimate D2E/DX2                !
 ! D1    D(26,2,39,1)            7.5209         estimate D2E/DX2                !
 ! D2    D(26,2,39,9)          -92.1874         estimate D2E/DX2                !
 ! D3    D(26,2,39,14)        -174.4416         estimate D2E/DX2                !
 ! D4    D(33,3,5,6)          -177.2343         estimate D2E/DX2                !
 ! D5    D(33,3,5,11)           60.8201         estimate D2E/DX2                !
 ! D6    D(34,3,5,6)            61.5941         estimate D2E/DX2                !
 ! D7    D(34,3,5,11)          -60.3515         estimate D2E/DX2                !
 ! D8    D(35,3,5,6)           -59.6797         estimate D2E/DX2                !
 ! D9    D(35,3,5,11)          178.3747         estimate D2E/DX2                !
 ! D10   D(3,5,6,4)             45.7811         estimate D2E/DX2                !
 ! D11   D(3,5,6,10)           -73.9023         estimate D2E/DX2                !
 ! D12   D(3,5,6,13)           159.8175         estimate D2E/DX2                !
 ! D13   D(11,5,6,4)           167.7646         estimate D2E/DX2                !
 ! D14   D(11,5,6,10)           48.0812         estimate D2E/DX2                !
 ! D15   D(11,5,6,13)          -78.199          estimate D2E/DX2                !
 ! D16   D(3,5,11,36)          179.5175         estimate D2E/DX2                !
 ! D17   D(3,5,11,37)           58.9725         estimate D2E/DX2                !
 ! D18   D(3,5,11,38)          -61.4713         estimate D2E/DX2                !
 ! D19   D(6,5,11,36)           57.9151         estimate D2E/DX2                !
 ! D20   D(6,5,11,37)          -62.6299         estimate D2E/DX2                !
 ! D21   D(6,5,11,38)          176.9263         estimate D2E/DX2                !
 ! D22   D(4,6,13,14)           80.5966         estimate D2E/DX2                !
 ! D23   D(4,6,13,17)          -92.5057         estimate D2E/DX2                !
 ! D24   D(5,6,13,14)          -33.663          estimate D2E/DX2                !
 ! D25   D(5,6,13,17)          153.2347         estimate D2E/DX2                !
 ! D26   D(10,6,13,14)        -159.7113         estimate D2E/DX2                !
 ! D27   D(10,6,13,17)          27.1863         estimate D2E/DX2                !
 ! D28   D(27,7,9,8)            60.5139         estimate D2E/DX2                !
 ! D29   D(27,7,9,15)          -49.2351         estimate D2E/DX2                !
 ! D30   D(27,7,9,39)         -158.5609         estimate D2E/DX2                !
 ! D31   D(28,7,9,8)           -60.6003         estimate D2E/DX2                !
 ! D32   D(28,7,9,15)         -170.3493         estimate D2E/DX2                !
 ! D33   D(28,7,9,39)           80.3249         estimate D2E/DX2                !
 ! D34   D(29,7,9,8)          -175.7105         estimate D2E/DX2                !
 ! D35   D(29,7,9,15)           74.5405         estimate D2E/DX2                !
 ! D36   D(29,7,9,39)          -34.7853         estimate D2E/DX2                !
 ! D37   D(30,8,9,7)          -175.4042         estimate D2E/DX2                !
 ! D38   D(30,8,9,15)          -64.0862         estimate D2E/DX2                !
 ! D39   D(30,8,9,39)           47.4704         estimate D2E/DX2                !
 ! D40   D(31,8,9,7)            67.4498         estimate D2E/DX2                !
 ! D41   D(31,8,9,15)          178.7677         estimate D2E/DX2                !
 ! D42   D(31,8,9,39)          -69.6757         estimate D2E/DX2                !
 ! D43   D(32,8,9,7)           -53.2147         estimate D2E/DX2                !
 ! D44   D(32,8,9,15)           58.1032         estimate D2E/DX2                !
 ! D45   D(32,8,9,39)          169.6599         estimate D2E/DX2                !
 ! D46   D(7,9,15,16)          -88.6716         estimate D2E/DX2                !
 ! D47   D(7,9,15,19)          154.1062         estimate D2E/DX2                !
 ! D48   D(7,9,15,20)           37.1013         estimate D2E/DX2                !
 ! D49   D(8,9,15,16)          160.2611         estimate D2E/DX2                !
 ! D50   D(8,9,15,19)           43.0389         estimate D2E/DX2                !
 ! D51   D(8,9,15,20)          -73.966          estimate D2E/DX2                !
 ! D52   D(39,9,15,16)          32.0076         estimate D2E/DX2                !
 ! D53   D(39,9,15,19)         -85.2146         estimate D2E/DX2                !
 ! D54   D(39,9,15,20)         157.7804         estimate D2E/DX2                !
 ! D55   D(7,9,39,1)           -76.9401         estimate D2E/DX2                !
 ! D56   D(7,9,39,2)             8.1186         estimate D2E/DX2                !
 ! D57   D(7,9,39,12)         -170.7359         estimate D2E/DX2                !
 ! D58   D(7,9,39,14)           91.031          estimate D2E/DX2                !
 ! D59   D(8,9,39,1)            56.2694         estimate D2E/DX2                !
 ! D60   D(8,9,39,2)           141.3282         estimate D2E/DX2                !
 ! D61   D(8,9,39,12)          -37.5263         estimate D2E/DX2                !
 ! D62   D(8,9,39,14)         -135.7594         estimate D2E/DX2                !
 ! D63   D(15,9,39,1)          169.9465         estimate D2E/DX2                !
 ! D64   D(15,9,39,2)         -104.9947         estimate D2E/DX2                !
 ! D65   D(15,9,39,12)          76.1508         estimate D2E/DX2                !
 ! D66   D(15,9,39,14)         -22.0824         estimate D2E/DX2                !
 ! D67   D(6,13,14,16)        -168.8499         estimate D2E/DX2                !
 ! D68   D(6,13,14,39)           3.6061         estimate D2E/DX2                !
 ! D69   D(17,13,14,16)          4.4885         estimate D2E/DX2                !
 ! D70   D(17,13,14,39)        176.9445         estimate D2E/DX2                !
 ! D71   D(6,13,17,18)          -8.5454         estimate D2E/DX2                !
 ! D72   D(6,13,17,22)         169.7722         estimate D2E/DX2                !
 ! D73   D(14,13,17,18)        178.7607         estimate D2E/DX2                !
 ! D74   D(14,13,17,22)         -2.9216         estimate D2E/DX2                !
 ! D75   D(13,14,16,15)        177.2883         estimate D2E/DX2                !
 ! D76   D(13,14,16,21)         -2.6723         estimate D2E/DX2                !
 ! D77   D(39,14,16,15)          5.3767         estimate D2E/DX2                !
 ! D78   D(39,14,16,21)       -174.5839         estimate D2E/DX2                !
 ! D79   D(13,14,39,2)         -68.2416         estimate D2E/DX2                !
 ! D80   D(13,14,39,9)        -158.6131         estimate D2E/DX2                !
 ! D81   D(13,14,39,12)        111.6166         estimate D2E/DX2                !
 ! D82   D(16,14,39,2)         104.0677         estimate D2E/DX2                !
 ! D83   D(16,14,39,9)          13.6962         estimate D2E/DX2                !
 ! D84   D(16,14,39,12)        -76.0741         estimate D2E/DX2                !
 ! D85   D(9,15,16,14)         -26.3044         estimate D2E/DX2                !
 ! D86   D(9,15,16,21)         153.6547         estimate D2E/DX2                !
 ! D87   D(19,15,16,14)         88.3539         estimate D2E/DX2                !
 ! D88   D(19,15,16,21)        -91.6871         estimate D2E/DX2                !
 ! D89   D(20,15,16,14)       -153.0193         estimate D2E/DX2                !
 ! D90   D(20,15,16,21)         26.9397         estimate D2E/DX2                !
 ! D91   D(14,16,21,22)         -0.6357         estimate D2E/DX2                !
 ! D92   D(14,16,21,23)        179.7705         estimate D2E/DX2                !
 ! D93   D(15,16,21,22)        179.4072         estimate D2E/DX2                !
 ! D94   D(15,16,21,23)         -0.1867         estimate D2E/DX2                !
 ! D95   D(13,17,22,21)         -0.3652         estimate D2E/DX2                !
 ! D96   D(13,17,22,24)       -179.328          estimate D2E/DX2                !
 ! D97   D(18,17,22,21)        177.9308         estimate D2E/DX2                !
 ! D98   D(18,17,22,24)         -1.0319         estimate D2E/DX2                !
 ! D99   D(16,21,22,17)          2.0936         estimate D2E/DX2                !
 ! D100  D(16,21,22,24)       -178.9427         estimate D2E/DX2                !
 ! D101  D(23,21,22,17)       -178.3174         estimate D2E/DX2                !
 ! D102  D(23,21,22,24)          0.6464         estimate D2E/DX2                !
 --------------------------------------------------------------------------------
 Trust Radius=3.00D-01 FncErr=1.00D-07 GrdErr=1.00D-06 EigMax=2.50D+02 EigMin=1.00D-04
 Number of optimizations in scan=   6
 Number of steps in this run=    231 maximum allowed number of steps=    234.
 GradGradGradGradGradGradGradGradGradGradGradGradGradGradGradGradGradGrad

                          Input orientation:                          
 ---------------------------------------------------------------------
 Center     Atomic      Atomic             Coordinates (Angstroms)
 Number     Number       Type             X           Y           Z
 ---------------------------------------------------------------------
      1          8           0       -0.256761   -2.285499    1.004063
      2          8           0       -0.413268    0.204900    2.032072
      3          6           0       -3.147165   -1.218781    1.469940
      4          1           0       -2.406601    1.121857    1.776192
      5          7           0       -2.665159   -0.370304    0.374457
      6          6           0       -2.798122    1.050317    0.747362
      7          6           0        2.563783    0.568008    1.356176
      8          6           0        2.930039   -1.102083   -0.993020
      9         15           0        1.714388   -0.046689   -0.132746
     10          1           0       -3.853152    1.376404    0.713675
     11          6           0       -3.412762   -0.647184   -0.853826
     12          6           0       -0.496553   -1.349839   -1.559260
     13          6           0       -1.913881    1.946509   -0.070127
     14          7           0       -0.737996    1.400070   -0.429633
     15          6           0        1.525449    1.430496   -1.265600
     16          6           0        0.242019    2.152429   -0.968180
     17          6           0       -2.187938    3.284640   -0.327984
     18          1           0       -3.154020    3.706317   -0.047967
     19          1           0        1.470694    1.003519   -2.283112
     20          1           0        2.388879    2.112294   -1.237830
     21          6           0        0.036842    3.506929   -1.215754
     22          6           0       -1.199129    4.072642   -0.912213
     23          1           0        0.838026    4.107146   -1.648353
     24          1           0       -1.384638    5.128716   -1.115115
     25          8           0       -0.474419   -1.834271   -2.615867
     26          1           0       -0.186544   -0.603877    2.518668
     27          1           0        3.458272    1.158135    1.108731
     28          1           0        2.845570   -0.303778    1.964780
     29          1           0        1.819393    1.142858    1.926127
     30          1           0        2.501640   -1.438898   -1.947430
     31          1           0        3.107164   -1.987607   -0.365774
     32          1           0        3.880229   -0.575855   -1.168384
     33          1           0       -2.994137   -2.269503    1.193744
     34          1           0       -4.218386   -1.030841    1.672802
     35          1           0       -2.540600   -0.997188    2.356061
     36          1           0       -3.048167    0.000128   -1.662993
     37          1           0       -4.494345   -0.466724   -0.704411
     38          1           0       -3.257565   -1.693526   -1.145211
     39         44           0       -0.457696   -0.598666    0.125198
 ---------------------------------------------------------------------
                    Distance matrix (angstroms):
                    1          2          3          4          5
     1  O    0.000000
     2  O    2.698775   0.000000
     3  C    3.115986   3.133218   0.000000
     4  H    4.102204   2.208996   2.474028   0.000000
     5  N    3.140822   2.854744   1.467080   2.063555   0.000000
     6  C    4.201438   2.837735   2.406814   1.103131   1.474754
     7  C    4.027649   3.074332   5.985022   5.018753   5.402411
     8  C    3.942653   4.694368   6.558369   6.410474   5.806181
     9  P    3.192183   3.045760   5.251390   4.689573   4.420680
    10  H    5.140806   3.865669   2.793804   1.812801   2.139482
    11  C    4.012004   4.248696   2.407727   3.325486   1.464326
    12  C    2.739267   3.914309   4.027278   4.569771   3.066203
    13  C    4.670099   3.115170   3.729860   2.081278   2.475822
    14  N    3.983779   2.755698   4.033715   2.779804   2.737653
    15  C    4.704919   4.016883   6.027866   4.980840   4.847047
    16  C    4.881981   3.636452   5.366196   3.950803   4.076584
    17  C    6.044026   4.266628   4.943020   3.025393   3.752303
    18  H    6.738156   4.908992   5.153705   3.250481   4.127501
    19  H    4.960571   4.775764   6.352058   5.614746   5.104444
    20  H    5.600543   4.709824   7.005417   5.749950   5.857138
    21  C    6.210154   4.653425   6.299459   4.539903   4.986232
    22  C    6.707170   4.924005   6.121164   4.170449   4.852271
    23  H    7.007124   5.508066   7.346496   5.582747   6.034205
    24  H    7.793177   5.923876   7.076703   5.045689   5.839330
    25  O    3.654432   5.075952   4.920997   5.635796   3.985546
    26  H    2.264246   0.970721   3.200503   2.908279   3.285686
    27  H    5.066661   4.092681   7.029368   5.902843   6.353873
    28  H    3.804557   3.298986   6.082350   5.445485   5.736000
    29  H    4.112694   2.423998   5.518347   4.228705   4.980818
    30  H    4.127569   5.199538   6.605745   6.671856   5.764448
    31  H    3.644336   4.790636   6.563350   6.682693   6.040143
    32  H    4.975650   5.411711   7.533815   7.146817   6.727906
    33  H    2.743986   3.672377   1.097141   3.490812   2.094377
    34  H    4.209020   4.016847   1.106340   2.815558   2.129442
    35  H    2.950180   2.464858   1.096466   2.201035   2.082127
    36  H    4.486562   4.542922   3.363155   3.673946   2.105973
    37  H    4.917718   4.959296   2.666137   3.610493   2.125835
    38  H    3.738267   4.667889   2.660185   4.145495   2.100299
    39  Ru   1.912639   2.069749   3.070199   3.079645   2.233198
                    6          7          8          9         10
     6  C    0.000000
     7  C    5.417869   0.000000
     8  C    6.361885   2.905525   0.000000
     9  P    4.726602   1.821048   1.825304   0.000000
    10  H    1.104787   6.499490   7.420740   5.808539   0.000000
    11  C    2.413108   6.486902   6.360616   5.212314   2.597289
    12  C    4.047033   4.641505   3.481888   2.936223   4.885221
    13  C    1.501110   4.897354   5.797344   4.140181   2.167980
    14  N    2.398284   3.844891   4.475786   2.862768   3.318420
    15  C    4.784330   2.948853   2.908802   1.871131   5.731474
    16  C    3.660628   3.647411   4.221128   2.775237   4.494583
    17  C    2.553604   5.726722   6.773426   5.134591   2.738495
    18  H    2.795273   6.671871   7.812145   6.147653   2.548996
    19  H    5.235337   3.824779   2.868377   2.405493   6.120712
    20  H    5.654535   3.023951   3.268793   2.517411   6.581251
    21  C    4.233886   4.651614   5.446393   4.076183   4.836722
    22  C    3.800713   5.620281   6.620750   5.105393   4.117894
    23  H    5.320266   4.952871   5.651730   4.507707   5.919737
    24  H    4.701074   6.519000   7.579855   6.111778   4.849523
    25  O    5.003174   5.547859   3.841882   3.761943   5.728011
    26  H    3.562896   3.207647   4.721573   3.309682   4.541314
    27  H    6.267750   1.099814   3.131290   2.456420   7.325342
    28  H    5.930173   1.099916   3.064802   2.396932   7.018630
    29  H    4.766498   1.099733   3.846390   2.380127   5.805373
    30  H    6.445586   3.865922   1.099031   2.418903   7.442498
    31  H    6.733532   3.129144   1.099529   2.400268   7.805624
    32  H    7.135467   3.068364   1.100241   2.458339   8.195038
    33  H    3.355426   6.242462   6.421889   5.373145   3.776376
    34  H    2.684177   6.975270   7.629657   6.279042   2.616897
    35  H    2.616583   5.431789   6.415235   5.020212   3.170830
    36  H    2.641066   6.397801   6.115773   5.002578   2.861938
    37  H    2.699302   7.425219   7.457108   6.249128   2.412305
    38  H    3.364758   6.727524   6.217669   5.334555   3.637946
    39  Ru   2.929817   3.464934   3.602858   2.255917   3.971943
                   11         12         13         14         15
    11  C    0.000000
    12  C    3.081499   0.000000
    13  C    3.096461   3.884874   0.000000
    14  N    3.394932   2.982675   1.345565   0.000000
    15  C    5.373289   3.450362   3.677555   2.413078   0.000000
    16  C    4.605251   3.627775   2.344527   1.347778   1.502277
    17  C    4.151619   5.084803   1.390033   2.379972   4.255140
    18  H    4.435011   5.908541   2.152989   3.361787   5.344101
    19  H    5.349376   3.151559   4.152334   2.910490   1.104825
    20  H    6.435932   4.518341   4.461475   3.307234   1.100514
    21  C    5.411784   4.898031   2.748216   2.378490   2.555388
    22  C    5.213476   5.505959   2.395917   2.754663   3.811711
    23  H    6.426829   5.618517   3.838247   3.361158   2.789894
    24  H    6.127200   6.554208   3.390950   3.845885   4.708299
    25  O    3.625993   1.162575   4.779867   3.912806   4.059728
    26  H    4.667342   4.157170   4.023683   3.607268   4.624962
    27  H    7.370341   5.389690   5.556192   4.475910   3.073668
    28  H    6.872350   4.968188   5.644202   4.634465   3.896894
    29  H    6.189333   4.870839   4.309086   3.486546   3.218114
    30  H    6.066542   3.024528   5.872143   4.567131   3.106649
    31  H    6.674156   3.849407   6.385574   5.125006   3.872329
    32  H    7.300120   4.461845   6.414062   5.077207   3.095139
    33  H    2.645697   3.829195   4.532006   4.603400   6.337588
    34  H    2.679565   4.939638   4.148875   4.737370   6.905362
    35  H    3.344629   4.430827   3.865814   4.093448   5.961780
    36  H    1.098496   2.888582   2.759026   2.969496   4.808517
    37  H    1.106667   4.182463   3.589541   4.203639   6.336584
    38  H    1.097190   2.812960   4.026307   4.053470   5.714126
    39  Ru   3.113400   1.844768   2.938799   2.093168   3.159854
                   16         17         18         19         20
    16  C    0.000000
    17  C    2.756165   0.000000
    18  H    3.846354   1.090658   0.000000
    19  H    2.135107   4.734092   5.804220   0.000000
    20  H    2.164101   4.811390   5.889008   1.779061   0.000000
    21  C    1.392142   2.405659   3.403686   3.076077   2.734515
    22  C    2.401511   1.392844   2.168574   4.292649   4.101560
    23  H    2.153783   3.402404   4.319529   3.230432   2.559905
    24  H    3.394980   2.159973   2.508532   5.151154   4.832525
    25  O    4.372863   5.862917   6.668769   3.456478   5.066836
    26  H    4.465311   5.218196   5.828491   5.327969   5.302987
    27  H    3.955562   6.202086   7.180083   3.934333   2.749613
    28  H    4.627493   6.593157   7.491802   4.652301   4.037658
    29  H    3.447370   5.072175   5.933229   4.225956   3.357789
    30  H    4.354589   6.850296   7.878305   2.672252   3.623149
    31  H    5.070685   7.472357   8.469013   3.911656   4.252717
    32  H    4.551943   7.241018   8.311016   3.089158   3.074913
    33  H    5.890680   5.814991   6.105558   6.537272   7.354560
    34  H    6.083026   5.171967   5.151174   7.221739   7.874455
    35  H    5.358510   5.065819   5.317762   6.450987   6.847240
    36  H    3.992554   3.648323   4.044175   4.670273   5.848374
    37  H    5.418734   4.419722   4.431892   6.343154   7.369847
    38  H    5.202865   5.156947   5.511169   5.561053   6.809933
    39  Ru   3.041973   4.275415   5.082620   3.476441   4.160545
                   21         22         23         24         25
    21  C    0.000000
    22  C    1.392764   0.000000
    23  H    1.090550   2.166355   0.000000
    24  H    2.158918   1.091272   2.503634   0.000000
    25  O    5.545279   6.190255   6.161090   7.180804   0.000000
    26  H    5.558285   5.887793   6.372405   6.892201   5.287739
    27  H    4.756706   5.854054   4.812886   6.645659   6.188149
    28  H    5.703178   6.617382   6.044934   7.542706   5.860637
    29  H    4.317145   5.074573   4.746262   5.949961   5.895301
    30  H    5.574207   6.718961   5.797902   7.676553   3.075719
    31  H    6.351320   7.454486   6.628726   8.448659   4.232512
    32  H    5.607405   6.890139   5.604986   7.762976   4.758337
    33  H    6.954112   6.919531   7.963959   7.915489   4.588196
    34  H    6.858723   6.468675   7.937020   7.330945   5.749388
    35  H    6.299852   6.179347   7.314689   7.135265   5.448842
    36  H    4.692010   4.535194   5.654230   5.419402   3.301086
    37  H    6.048392   5.613152   7.088406   6.414663   4.656571
    38  H    6.156527   6.127001   7.118625   7.074727   3.150959
    39  Ru   4.347255   4.842216   5.193173   5.933001   3.006732
                   26         27         28         29         30
    26  H    0.000000
    27  H    4.286875   0.000000
    28  H    3.096864   1.801504   0.000000
    29  H    2.725063   1.831473   1.774060   0.000000
    30  H    5.279169   4.123088   4.088053   4.704824   0.000000
    31  H    4.591647   3.491867   2.887073   4.087906   1.780274
    32  H    5.489424   2.893100   3.310780   4.095976   1.803404
    33  H    3.523111   7.306813   6.209730   5.945642   6.384390
    34  H    4.141684   8.002555   7.107275   6.422143   7.644039
    35  H    2.392220   6.495207   5.444699   4.875877   6.643743
    36  H    5.102941   7.166394   6.927427   6.154735   5.740388
    37  H    5.381841   8.316958   7.811882   7.026648   7.171752
    38  H    4.903318   7.636407   6.989400   6.576755   5.820381
    39  Ru   2.408786   4.403237   3.792438   3.385466   3.709372
                   31         32         33         34         35
    31  H    0.000000
    32  H    1.798570   0.000000
    33  H    6.303763   7.463578   0.000000
    34  H    7.663868   8.594586   1.806258   0.000000
    35  H    6.347168   7.336639   1.781983   1.811889   0.000000
    36  H    6.597118   6.969869   3.648986   3.682369   4.171938
    37  H    7.759555   8.388127   3.017223   2.458765   3.669469
    38  H    6.419017   7.224807   2.423192   3.050168   3.641131
    39  Ru   3.857257   4.526750   3.219786   4.089578   3.077996
                   36         37         38         39
    36  H    0.000000
    37  H    1.796736   0.000000
    38  H    1.783371   1.796935   0.000000
    39  Ru   3.204174   4.123130   3.263730   0.000000
 Symmetry turned off by external request.
 Stoichiometry    C12H20N2O3PRu(2)
 Framework group  C1[X(C12H20N2O3PRu)]
 Deg. of freedom   111
 Full point group                 C1      NOp   1
 Rotational constants (GHZ):           0.3811791           0.3538680           0.2530538
 General basis read from cards:  (5D, 7F)
 ======================================================================================================
                                       Pseudopotential Parameters
 ======================================================================================================
  Center     Atomic      Valence      Angular      Power
  Number     Number     Electrons     Momentum     of R      Exponent        Coefficient   SO-Coeffient
 ======================================================================================================
    1          8
                                   No pseudopotential on this center.
    2          8
                                   No pseudopotential on this center.
    3          6
                                   No pseudopotential on this center.
    4          1
                                   No pseudopotential on this center.
    5          7
                                   No pseudopotential on this center.
    6          6
                                   No pseudopotential on this center.
    7          6
                                   No pseudopotential on this center.
    8          6
                                   No pseudopotential on this center.
    9         15
                                   No pseudopotential on this center.
   10          1
                                   No pseudopotential on this center.
   11          6
                                   No pseudopotential on this center.
   12          6
                                   No pseudopotential on this center.
   13          6
                                   No pseudopotential on this center.
   14          7
                                   No pseudopotential on this center.
   15          6
                                   No pseudopotential on this center.
   16          6
                                   No pseudopotential on this center.
   17          6
                                   No pseudopotential on this center.
   18          1
                                   No pseudopotential on this center.
   19          1
                                   No pseudopotential on this center.
   20          1
                                   No pseudopotential on this center.
   21          6
                                   No pseudopotential on this center.
   22          6
                                   No pseudopotential on this center.
   23          1
                                   No pseudopotential on this center.
   24          1
                                   No pseudopotential on this center.
   25          8
                                   No pseudopotential on this center.
   26          1
                                   No pseudopotential on this center.
   27          1
                                   No pseudopotential on this center.
   28          1
                                   No pseudopotential on this center.
   29          1
                                   No pseudopotential on this center.
   30          1
                                   No pseudopotential on this center.
   31          1
                                   No pseudopotential on this center.
   32          1
                                   No pseudopotential on this center.
   33          1
                                   No pseudopotential on this center.
   34          1
                                   No pseudopotential on this center.
   35          1
                                   No pseudopotential on this center.
   36          1
                                   No pseudopotential on this center.
   37          1
                                   No pseudopotential on this center.
   38          1
                                   No pseudopotential on this center.
   39         44           16
                                      G and up 
                                                     2        1.0000000        0.00000000    0.00000000
                                      S - G
                                                     2       11.1052690      209.82297100    0.00000000
                                                     2        5.4147450       30.65472600    0.00000000
                                      P - G
                                                     2        9.7712710      146.33618200    0.00000000
                                                     2        5.0739910       24.12787700    0.00000000
                                      D - G
                                                     2        7.6714230       67.51589700    0.00000000
                                                     2        4.1365650        9.87010400    0.00000000
                                      F - G
                                                     2       11.3600000      -28.34061600    0.00000000
                                                     2        5.6800000       -4.94462900    0.00000000
 ======================================================================================================
   392 basis functions,   837 primitive gaussians,   413 cartesian basis functions
    81 alpha electrons       80 beta electrons
       nuclear repulsion energy      1996.2943308820 Hartrees.
 NAtoms=   39 NActive=   39 NUniq=   39 SFac= 1.00D+00 NAtFMM=   60 NAOKFM=F Big=F
 Integral buffers will be    131072 words long.
 Raffenetti 2 integral format.
 Two-electron integral symmetry is turned off.
 Nuclear repulsion after empirical dispersion term =     1996.2387462577 Hartrees.
 One-electron integrals computed using PRISM.
   1 Symmetry operations used in ECPInt.
 ECPInt:  NShTT=   17020 NPrTT=  126709 LenC2=   16499 LenP2D=   70191.
 LDataN:  DoStor=T MaxTD1= 6 Len=  172
 NBasis=   392 RedAO= T EigKep=  4.51D-04  NBF=   392
 NBsUse=   392 1.00D-06 EigRej= -1.00D+00 NBFU=   392
 Defaulting to unpruned grid for atomic number  44.
 ExpMin= 1.60D-02 ExpMax= 9.48D+04 ExpMxC= 3.24D+03 IAcc=3 IRadAn=         5 AccDes= 0.00D+00
 Harris functional with IExCor= 1009 and IRadAn=       5 diagonalized for initial guess.
 HarFok:  IExCor= 1009 AccDes= 0.00D+00 IRadAn=         5 IDoV= 1 UseB2=F ITyADJ=14
 ICtDFT=  3500011 ScaDFX=  1.000000  1.000000  1.000000  1.000000
 Defaulting to unpruned grid for atomic number  44.
 FoFCou: FMM=F IPFlag=           0 FMFlag=      100000 FMFlg1=           0
         NFxFlg=           0 DoJE=T BraDBF=F KetDBF=T FulRan=T
         wScrn=  0.000000 ICntrl=       500 IOpCl=  0 I1Cent=   200000004 NGrid=           0
         NMat0=    1 NMatS0=      1 NMatT0=    0 NMatD0=    1 NMtDS0=    0 NMtDT0=    0
 Symmetry not used in FoFCou.
 Initial guess <Sx>= 0.0000 <Sy>= 0.0000 <Sz>= 0.5000 <S**2>= 0.7500 S= 0.5000
 Requested convergence on RMS density matrix=1.00D-08 within 128 cycles.
 Requested convergence on MAX density matrix=1.00D-06.
 Requested convergence on             energy=1.00D-06.
 No special actions if energy rises.
 Defaulting to unpruned grid for atomic number  44.
 Defaulting to unpruned grid for atomic number  44.
 Defaulting to unpruned grid for atomic number  44.
 Defaulting to unpruned grid for atomic number  44.
 Defaulting to unpruned grid for atomic number  44.
 Defaulting to unpruned grid for atomic number  44.
 Defaulting to unpruned grid for atomic number  44.
 Defaulting to unpruned grid for atomic number  44.
 Defaulting to unpruned grid for atomic number  44.
 Defaulting to unpruned grid for atomic number  44.
 Defaulting to unpruned grid for atomic number  44.
 Defaulting to unpruned grid for atomic number  44.
 Defaulting to unpruned grid for atomic number  44.
 Defaulting to unpruned grid for atomic number  44.
 Defaulting to unpruned grid for atomic number  44.
 Defaulting to unpruned grid for atomic number  44.
 Defaulting to unpruned grid for atomic number  44.
 Defaulting to unpruned grid for atomic number  44.
 Defaulting to unpruned grid for atomic number  44.
 Defaulting to unpruned grid for atomic number  44.
 EnCoef did    15 forward-backward iterations
 EnCoef did   100 forward-backward iterations
 EnCoef did     2 forward-backward iterations
 Restarting incremental Fock formation.
 SCF Done:  E(UPBE1PBE) =  -1239.85448168     A.U. after   30 cycles
            NFock= 30  Conv=0.33D-08     -V/T= 2.0571
 <Sx>= 0.0000 <Sy>= 0.0000 <Sz>= 0.5000 <S**2>= 0.7606 S= 0.5053
 <L.S>= 0.000000000000E+00
 Annihilation of the first spin contaminant:
 S**2 before annihilation     0.7606,   after     0.7501

 **********************************************************************

            Population analysis using the SCF density.

 **********************************************************************

 Alpha  occ. eigenvalues --  -77.26867 -19.25027 -19.15069 -19.11672 -14.44758
 Alpha  occ. eigenvalues --  -14.44728 -10.30824 -10.30495 -10.30253 -10.27525
 Alpha  occ. eigenvalues --  -10.27524 -10.26778 -10.26691 -10.26602 -10.26485
 Alpha  occ. eigenvalues --  -10.24933 -10.24836 -10.23615  -6.64926  -4.78579
 Alpha  occ. eigenvalues --   -4.78499  -4.78225  -3.04698  -1.88079  -1.87733
 Alpha  occ. eigenvalues --   -1.87520  -1.11470  -1.01795  -0.98069  -0.89272
 Alpha  occ. eigenvalues --   -0.86151  -0.85464  -0.85225  -0.80074  -0.75962
 Alpha  occ. eigenvalues --   -0.73938  -0.73329  -0.72364  -0.66981  -0.65648
 Alpha  occ. eigenvalues --   -0.62250  -0.57935  -0.55494  -0.54861  -0.53226
 Alpha  occ. eigenvalues --   -0.51464  -0.50242  -0.49727  -0.48089  -0.47521
 Alpha  occ. eigenvalues --   -0.46426  -0.45223  -0.44815  -0.44455  -0.44184
 Alpha  occ. eigenvalues --   -0.43386  -0.43288  -0.42656  -0.42299  -0.41417
 Alpha  occ. eigenvalues --   -0.41127  -0.40541  -0.39293  -0.38561  -0.37978
 Alpha  occ. eigenvalues --   -0.37628  -0.36719  -0.36203  -0.35750  -0.34383
 Alpha  occ. eigenvalues --   -0.32659  -0.32038  -0.29068  -0.28838  -0.28292
 Alpha  occ. eigenvalues --   -0.27368  -0.26844  -0.23984  -0.19913  -0.19373
 Alpha  occ. eigenvalues --   -0.17583
 Alpha virt. eigenvalues --   -0.04901  -0.03256   0.00301   0.01212   0.02299
 Alpha virt. eigenvalues --    0.02945   0.03742   0.04413   0.05065   0.06287
 Alpha virt. eigenvalues --    0.07419   0.07854   0.08688   0.09202   0.09397
 Alpha virt. eigenvalues --    0.10500   0.10746   0.11484   0.12314   0.12879
 Alpha virt. eigenvalues --    0.13194   0.13735   0.13956   0.14543   0.14663
 Alpha virt. eigenvalues --    0.14936   0.15590   0.16258   0.16610   0.17352
 Alpha virt. eigenvalues --    0.18373   0.18860   0.19382   0.20226   0.20505
 Alpha virt. eigenvalues --    0.21217   0.21392   0.21685   0.22817   0.23405
 Alpha virt. eigenvalues --    0.24224   0.24518   0.25497   0.27342   0.28480
 Alpha virt. eigenvalues --    0.29805   0.30032   0.31171   0.32106   0.32733
 Alpha virt. eigenvalues --    0.34662   0.35736   0.37394   0.38057   0.39605
 Alpha virt. eigenvalues --    0.41072   0.41924   0.43375   0.44165   0.45532
 Alpha virt. eigenvalues --    0.45700   0.46480   0.48200   0.48474   0.49450
 Alpha virt. eigenvalues --    0.49983   0.50680   0.51300   0.51733   0.53598
 Alpha virt. eigenvalues --    0.54915   0.55406   0.55925   0.57326   0.58352
 Alpha virt. eigenvalues --    0.58713   0.59148   0.59845   0.60704   0.61028
 Alpha virt. eigenvalues --    0.61265   0.61798   0.62693   0.62758   0.63992
 Alpha virt. eigenvalues --    0.64237   0.64796   0.65406   0.65794   0.66008
 Alpha virt. eigenvalues --    0.66461   0.67262   0.67809   0.68058   0.68394
 Alpha virt. eigenvalues --    0.68712   0.69128   0.70050   0.70891   0.71398
 Alpha virt. eigenvalues --    0.72044   0.72500   0.73294   0.73808   0.74646
 Alpha virt. eigenvalues --    0.75289   0.76069   0.78312   0.79276   0.79384
 Alpha virt. eigenvalues --    0.80118   0.81188   0.81327   0.82252   0.83463
 Alpha virt. eigenvalues --    0.85645   0.86332   0.86623   0.87623   0.88332
 Alpha virt. eigenvalues --    0.89064   0.89457   0.89821   0.92197   0.92657
 Alpha virt. eigenvalues --    0.94009   0.94588   0.96480   0.97219   0.98263
 Alpha virt. eigenvalues --    0.98703   0.99809   1.01575   1.02382   1.03213
 Alpha virt. eigenvalues --    1.04096   1.05193   1.05695   1.06709   1.08238
 Alpha virt. eigenvalues --    1.09289   1.11017   1.11033   1.12590   1.14091
 Alpha virt. eigenvalues --    1.15750   1.17237   1.17493   1.18608   1.19539
 Alpha virt. eigenvalues --    1.20067   1.23690   1.24226   1.25076   1.27162
 Alpha virt. eigenvalues --    1.28754   1.28927   1.29610   1.29994   1.32921
 Alpha virt. eigenvalues --    1.33643   1.34254   1.35434   1.36220   1.37735
 Alpha virt. eigenvalues --    1.38840   1.39451   1.40506   1.41168   1.42364
 Alpha virt. eigenvalues --    1.42961   1.44595   1.44930   1.45288   1.46485
 Alpha virt. eigenvalues --    1.47885   1.48884   1.49554   1.50680   1.51511
 Alpha virt. eigenvalues --    1.52840   1.53241   1.55196   1.55421   1.56061
 Alpha virt. eigenvalues --    1.57538   1.59242   1.60719   1.61226   1.62118
 Alpha virt. eigenvalues --    1.62587   1.63365   1.63842   1.64196   1.65257
 Alpha virt. eigenvalues --    1.65910   1.66413   1.66999   1.67417   1.67663
 Alpha virt. eigenvalues --    1.68498   1.69161   1.71172   1.71654   1.71858
 Alpha virt. eigenvalues --    1.72725   1.74025   1.74733   1.75684   1.76465
 Alpha virt. eigenvalues --    1.77195   1.77524   1.78643   1.79602   1.80648
 Alpha virt. eigenvalues --    1.82045   1.82521   1.83114   1.83987   1.84299
 Alpha virt. eigenvalues --    1.85563   1.86808   1.87857   1.88229   1.90088
 Alpha virt. eigenvalues --    1.90915   1.92612   1.92800   1.94953   1.95237
 Alpha virt. eigenvalues --    1.96991   1.97601   1.98375   1.99445   2.00576
 Alpha virt. eigenvalues --    2.01456   2.03239   2.04624   2.05191   2.07641
 Alpha virt. eigenvalues --    2.09133   2.10672   2.10852   2.12541   2.13758
 Alpha virt. eigenvalues --    2.15097   2.16366   2.16448   2.17176   2.19214
 Alpha virt. eigenvalues --    2.20104   2.21283   2.22225   2.24592   2.27008
 Alpha virt. eigenvalues --    2.30596   2.33744   2.34177   2.39270   2.39707
 Alpha virt. eigenvalues --    2.40504   2.42615   2.43608   2.44090   2.44909
 Alpha virt. eigenvalues --    2.45526   2.46562   2.47964   2.48140   2.49080
 Alpha virt. eigenvalues --    2.49190   2.50239   2.51209   2.51488   2.52998
 Alpha virt. eigenvalues --    2.54303   2.54585   2.56203   2.57263   2.60312
 Alpha virt. eigenvalues --    2.63322   2.64235   2.65353   2.66738   2.67996
 Alpha virt. eigenvalues --    2.69727   2.71025   2.71844   2.72752   2.74805
 Alpha virt. eigenvalues --    2.77933   2.78580   2.80253   2.80816   2.85025
 Alpha virt. eigenvalues --    2.90014   2.91520   2.96957   2.98988   3.07370
 Alpha virt. eigenvalues --    3.10439   3.12614   3.15792   3.17811   3.48254
 Alpha virt. eigenvalues --    3.58682   3.85276  34.83034  34.94908  35.00239
 Alpha virt. eigenvalues --   45.97974
  Beta  occ. eigenvalues --  -77.26864 -19.25048 -19.12849 -19.11687 -14.44781
  Beta  occ. eigenvalues --  -14.44683 -10.30825 -10.30516 -10.30255 -10.27533
  Beta  occ. eigenvalues --  -10.27526 -10.26775 -10.26688 -10.26599 -10.26486
  Beta  occ. eigenvalues --  -10.24929 -10.24831 -10.23617  -6.64922  -4.78574
  Beta  occ. eigenvalues --   -4.78497  -4.78218  -3.03814  -1.87374  -1.86700
  Beta  occ. eigenvalues --   -1.86275  -1.11509  -1.01798  -0.98014  -0.89219
  Beta  occ. eigenvalues --   -0.85561  -0.85245  -0.80069  -0.79512  -0.75947
  Beta  occ. eigenvalues --   -0.73926  -0.73317  -0.72361  -0.66982  -0.65641
  Beta  occ. eigenvalues --   -0.62217  -0.57916  -0.55506  -0.54875  -0.53207
  Beta  occ. eigenvalues --   -0.51425  -0.50222  -0.49713  -0.48089  -0.47503
  Beta  occ. eigenvalues --   -0.46413  -0.45216  -0.44803  -0.44434  -0.44149
  Beta  occ. eigenvalues --   -0.43382  -0.43287  -0.42699  -0.42312  -0.41406
  Beta  occ. eigenvalues --   -0.41087  -0.40529  -0.39273  -0.38518  -0.37963
  Beta  occ. eigenvalues --   -0.37590  -0.36624  -0.36177  -0.35518  -0.34004
  Beta  occ. eigenvalues --   -0.32662  -0.28824  -0.28290  -0.28114  -0.26860
  Beta  occ. eigenvalues --   -0.25459  -0.23892  -0.23585  -0.19552  -0.15952
  Beta virt. eigenvalues --   -0.05044  -0.03263  -0.02678   0.00330   0.01593
  Beta virt. eigenvalues --    0.02382   0.03040   0.03895   0.04532   0.05141
  Beta virt. eigenvalues --    0.06424   0.07447   0.07899   0.08994   0.09233
  Beta virt. eigenvalues --    0.09444   0.10515   0.10802   0.11539   0.12385
  Beta virt. eigenvalues --    0.12938   0.13237   0.13777   0.13979   0.14610
  Beta virt. eigenvalues --    0.14774   0.14999   0.15622   0.16289   0.16616
  Beta virt. eigenvalues --    0.17431   0.18415   0.18910   0.19423   0.20284
  Beta virt. eigenvalues --    0.20571   0.21252   0.21493   0.21728   0.22884
  Beta virt. eigenvalues --    0.23442   0.24276   0.24790   0.25705   0.27424
  Beta virt. eigenvalues --    0.28757   0.29852   0.30105   0.31277   0.32280
  Beta virt. eigenvalues --    0.32791   0.34969   0.35823   0.37676   0.38110
  Beta virt. eigenvalues --    0.39674   0.41157   0.42014   0.43388   0.44221
  Beta virt. eigenvalues --    0.45569   0.45755   0.46486   0.48233   0.48517
  Beta virt. eigenvalues --    0.49480   0.50012   0.50705   0.51418   0.51844
  Beta virt. eigenvalues --    0.53675   0.54941   0.55449   0.55995   0.57354
  Beta virt. eigenvalues --    0.58386   0.58756   0.59254   0.59881   0.60718
  Beta virt. eigenvalues --    0.61063   0.61300   0.61842   0.62722   0.62787
  Beta virt. eigenvalues --    0.64042   0.64249   0.64820   0.65423   0.65849
  Beta virt. eigenvalues --    0.66021   0.66492   0.67306   0.67881   0.68121
  Beta virt. eigenvalues --    0.68419   0.68739   0.69137   0.70093   0.70928
  Beta virt. eigenvalues --    0.71447   0.72055   0.72508   0.73318   0.73845
  Beta virt. eigenvalues --    0.74685   0.75352   0.76168   0.78337   0.79350
  Beta virt. eigenvalues --    0.79517   0.80224   0.81220   0.81390   0.82296
  Beta virt. eigenvalues --    0.83541   0.85699   0.86414   0.86657   0.87702
  Beta virt. eigenvalues --    0.88364   0.89182   0.89493   0.89848   0.92219
  Beta virt. eigenvalues --    0.92676   0.94027   0.94593   0.96515   0.97250
  Beta virt. eigenvalues --    0.98368   0.98809   0.99842   1.01656   1.02428
  Beta virt. eigenvalues --    1.03350   1.04211   1.05278   1.05790   1.06857
  Beta virt. eigenvalues --    1.08258   1.09338   1.11026   1.11217   1.12626
  Beta virt. eigenvalues --    1.14428   1.15811   1.17264   1.17528   1.19561
  Beta virt. eigenvalues --    1.19841   1.20554   1.23756   1.24477   1.25211
  Beta virt. eigenvalues --    1.27310   1.28847   1.28982   1.29683   1.31252
  Beta virt. eigenvalues --    1.33223   1.33864   1.34449   1.35521   1.37722
  Beta virt. eigenvalues --    1.38095   1.38869   1.39822   1.40651   1.41211
  Beta virt. eigenvalues --    1.42400   1.43015   1.44619   1.45064   1.45493
  Beta virt. eigenvalues --    1.46550   1.48015   1.49261   1.49930   1.50783
  Beta virt. eigenvalues --    1.51612   1.52956   1.53274   1.55216   1.55500
  Beta virt. eigenvalues --    1.56101   1.57548   1.59274   1.60738   1.61268
  Beta virt. eigenvalues --    1.62141   1.62651   1.63397   1.63855   1.64215
  Beta virt. eigenvalues --    1.65272   1.65971   1.66462   1.67024   1.67433
  Beta virt. eigenvalues --    1.67694   1.68563   1.69202   1.71210   1.71663
  Beta virt. eigenvalues --    1.71961   1.72738   1.74040   1.74758   1.75748
  Beta virt. eigenvalues --    1.76491   1.77230   1.77533   1.78651   1.79622
  Beta virt. eigenvalues --    1.80695   1.82097   1.82607   1.83152   1.84073
  Beta virt. eigenvalues --    1.84333   1.85586   1.86842   1.87993   1.88262
  Beta virt. eigenvalues --    1.90123   1.91014   1.92624   1.92866   1.95015
  Beta virt. eigenvalues --    1.95264   1.97017   1.97610   1.98381   1.99477
  Beta virt. eigenvalues --    2.00707   2.01501   2.03279   2.04670   2.05201
  Beta virt. eigenvalues --    2.07706   2.09238   2.10740   2.10933   2.12601
  Beta virt. eigenvalues --    2.13780   2.15119   2.16385   2.16479   2.17203
  Beta virt. eigenvalues --    2.19220   2.20112   2.21307   2.22243   2.24611
  Beta virt. eigenvalues --    2.27051   2.31264   2.34204   2.34716   2.39270
  Beta virt. eigenvalues --    2.39713   2.40507   2.42799   2.43640   2.44144
  Beta virt. eigenvalues --    2.44996   2.45539   2.46605   2.48020   2.48178
  Beta virt. eigenvalues --    2.49118   2.49221   2.50255   2.51219   2.51503
  Beta virt. eigenvalues --    2.53029   2.54325   2.54608   2.56317   2.57327
  Beta virt. eigenvalues --    2.60532   2.63447   2.64318   2.65633   2.66962
  Beta virt. eigenvalues --    2.69354   2.70406   2.71634   2.72607   2.74891
  Beta virt. eigenvalues --    2.76284   2.78482   2.80949   2.83380   2.84454
  Beta virt. eigenvalues --    2.86597   2.91394   2.92106   2.97074   3.00027
  Beta virt. eigenvalues --    3.07457   3.11030   3.12635   3.15890   3.19408
  Beta virt. eigenvalues --    3.48256   3.58665   3.85279  34.83279  34.95197
  Beta virt. eigenvalues --   35.00544  45.98220
          Condensed to atoms (all electrons):
               1          2          3          4          5          6
     1  O    8.045392  -0.014261  -0.000400  -0.000037  -0.000746  -0.000042
     2  O   -0.014261   7.813869  -0.014333   0.008000  -0.009632  -0.012986
     3  C   -0.000400  -0.014333   4.591889  -0.007487   0.346887  -0.040005
     4  H   -0.000037   0.008000  -0.007487   0.528543  -0.014077   0.376633
     5  N   -0.000746  -0.009632   0.346887  -0.014077   6.553726   0.307611
     6  C   -0.000042  -0.012986  -0.040005   0.376633   0.307611   4.726703
     7  C   -0.000784  -0.002896   0.000001  -0.000023   0.000025   0.000002
     8  C   -0.000512   0.000118   0.000000  -0.000001   0.000010  -0.000000
     9  P   -0.002074  -0.027035  -0.000123   0.000542  -0.006500   0.000441
    10  H   -0.000001   0.000490  -0.004241  -0.032403  -0.026136   0.370372
    11  C   -0.000419  -0.000036  -0.046681   0.006546   0.347054  -0.058041
    12  C   -0.027708  -0.006418  -0.000131  -0.000028  -0.001823   0.001305
    13  C   -0.000011  -0.010943   0.007424  -0.002163  -0.015846   0.424285
    14  N   -0.001257  -0.010087   0.000439  -0.005330  -0.009722  -0.054644
    15  C    0.000064  -0.000304   0.000002  -0.000012   0.000068  -0.000722
    16  C    0.000004  -0.002770   0.000030  -0.000099  -0.000384   0.007409
    17  C   -0.000001  -0.000353  -0.000256  -0.002231   0.004227  -0.071077
    18  H    0.000000  -0.000011  -0.000026  -0.000278   0.000183  -0.010470
    19  H    0.000009  -0.000008  -0.000000   0.000005   0.000007   0.000011
    20  H   -0.000001  -0.000001   0.000000   0.000003  -0.000003   0.000014
    21  C   -0.000001   0.000029  -0.000002   0.000188  -0.000009   0.000731
    22  C    0.000000  -0.000014   0.000006  -0.000143  -0.000117   0.005231
    23  H    0.000000   0.000001  -0.000000  -0.000001   0.000000   0.000055
    24  H   -0.000000  -0.000000  -0.000000  -0.000001   0.000002  -0.000283
    25  O    0.000228   0.000002   0.000027   0.000001  -0.000109   0.000009
    26  H   -0.008836   0.305120  -0.001915   0.000420   0.001315   0.001483
    27  H   -0.000010   0.000597   0.000000   0.000001  -0.000001  -0.000001
    28  H   -0.000221  -0.002202  -0.000002   0.000003  -0.000001  -0.000001
    29  H   -0.000207   0.011044   0.000011   0.000004   0.000028   0.000008
    30  H   -0.000192   0.000008  -0.000000  -0.000000   0.000004  -0.000001
    31  H   -0.000180  -0.000007   0.000000  -0.000000   0.000000  -0.000000
    32  H   -0.000000   0.000000   0.000000   0.000000  -0.000000   0.000000
    33  H    0.000113  -0.000600   0.400010   0.000737  -0.017790   0.005175
    34  H    0.000238  -0.000192   0.383576  -0.003246  -0.027883  -0.005323
    35  H   -0.004781   0.014786   0.389617   0.003635  -0.020087  -0.003215
    36  H    0.000012   0.000013   0.006845   0.000334  -0.022585  -0.001376
    37  H   -0.000004  -0.000010  -0.005738  -0.000302  -0.027959  -0.006899
    38  H   -0.000788   0.000030  -0.001285  -0.000323  -0.019520   0.008437
    39  Ru   0.381722   0.391372  -0.037740   0.002839   0.055042  -0.091999
               7          8          9         10         11         12
     1  O   -0.000784  -0.000512  -0.002074  -0.000001  -0.000419  -0.027708
     2  O   -0.002896   0.000118  -0.027035   0.000490  -0.000036  -0.006418
     3  C    0.000001   0.000000  -0.000123  -0.004241  -0.046681  -0.000131
     4  H   -0.000023  -0.000001   0.000542  -0.032403   0.006546  -0.000028
     5  N    0.000025   0.000010  -0.006500  -0.026136   0.347054  -0.001823
     6  C    0.000002  -0.000000   0.000441   0.370372  -0.058041   0.001305
     7  C    4.729923  -0.037263   0.408019   0.000001   0.000000   0.000764
     8  C   -0.037263   4.729724   0.396580   0.000000  -0.000001  -0.005103
     9  P    0.408019   0.396580  14.028262  -0.000078   0.000239  -0.008151
    10  H    0.000001   0.000000  -0.000078   0.663457  -0.007813   0.000021
    11  C    0.000000  -0.000001   0.000239  -0.007813   4.592982  -0.006188
    12  C    0.000764  -0.005103  -0.008151   0.000021  -0.006188   5.261310
    13  C   -0.000163   0.000003   0.002586  -0.022568  -0.001924  -0.002038
    14  N   -0.000067   0.000313  -0.006858   0.004535   0.000125   0.003205
    15  C   -0.030720  -0.028609   0.355733   0.000017  -0.000011  -0.002017
    16  C    0.001112   0.001692  -0.033506   0.000016  -0.000043  -0.002803
    17  C   -0.000011  -0.000000  -0.000033  -0.005988  -0.000166  -0.000023
    18  H   -0.000000  -0.000000  -0.000005   0.002391  -0.000039  -0.000003
    19  H    0.003296  -0.002820  -0.020239  -0.000000  -0.000007   0.001972
    20  H   -0.004050  -0.001378  -0.016798  -0.000001   0.000000   0.000188
    21  C    0.000006  -0.000076   0.006111  -0.000138  -0.000002   0.000011
    22  C    0.000004   0.000002  -0.000316   0.000671  -0.000001   0.000022
    23  H   -0.000018  -0.000008   0.000083  -0.000002  -0.000000  -0.000007
    24  H   -0.000000  -0.000000   0.000009   0.000008  -0.000000  -0.000000
    25  O   -0.000004  -0.000629  -0.003806   0.000000  -0.000499   0.616047
    26  H    0.001733   0.000087   0.002321  -0.000041   0.000000  -0.000053
    27  H    0.367912  -0.003541  -0.025095  -0.000000   0.000000  -0.000023
    28  H    0.391566  -0.001200  -0.014335   0.000000  -0.000000  -0.000054
    29  H    0.390762   0.002866  -0.016154  -0.000001  -0.000000   0.000046
    30  H    0.003315   0.386738  -0.011266  -0.000000   0.000001   0.004701
    31  H   -0.000184   0.391888  -0.018320   0.000000  -0.000000  -0.000160
    32  H   -0.003432   0.374402  -0.020417  -0.000000   0.000000   0.000260
    33  H    0.000000  -0.000001   0.000142  -0.000657  -0.001786   0.000432
    34  H    0.000000   0.000000  -0.000029   0.006368  -0.006473  -0.000045
    35  H   -0.000001  -0.000001   0.000624  -0.001249   0.005918  -0.000142
    36  H   -0.000000  -0.000001   0.000256  -0.003178   0.394372  -0.001464
    37  H    0.000000   0.000000  -0.000031   0.009195   0.383793   0.001044
    38  H   -0.000000  -0.000001   0.000162   0.000112   0.397747   0.006187
    39  Ru  -0.038607  -0.018424  -0.033119   0.011916  -0.015292   0.136013
              13         14         15         16         17         18
     1  O   -0.000011  -0.001257   0.000064   0.000004  -0.000001   0.000000
     2  O   -0.010943  -0.010087  -0.000304  -0.002770  -0.000353  -0.000011
     3  C    0.007424   0.000439   0.000002   0.000030  -0.000256  -0.000026
     4  H   -0.002163  -0.005330  -0.000012  -0.000099  -0.002231  -0.000278
     5  N   -0.015846  -0.009722   0.000068  -0.000384   0.004227   0.000183
     6  C    0.424285  -0.054644  -0.000722   0.007409  -0.071077  -0.010470
     7  C   -0.000163  -0.000067  -0.030720   0.001112  -0.000011  -0.000000
     8  C    0.000003   0.000313  -0.028609   0.001692  -0.000000  -0.000000
     9  P    0.002586  -0.006858   0.355733  -0.033506  -0.000033  -0.000005
    10  H   -0.022568   0.004535   0.000017   0.000016  -0.005988   0.002391
    11  C   -0.001924   0.000125  -0.000011  -0.000043  -0.000166  -0.000039
    12  C   -0.002038   0.003205  -0.002017  -0.002803  -0.000023  -0.000003
    13  C    4.846382   0.450847   0.008050  -0.048247   0.507362  -0.039907
    14  N    0.450847   6.528769  -0.067640   0.467639  -0.026193   0.005195
    15  C    0.008050  -0.067640   4.886416   0.420760   0.000886   0.000063
    16  C   -0.048247   0.467639   0.420760   4.813862  -0.054946   0.000516
    17  C    0.507362  -0.026193   0.000886  -0.054946   4.833902   0.406522
    18  H   -0.039907   0.005195   0.000063   0.000516   0.406522   0.672164
    19  H   -0.000468  -0.002363   0.358852  -0.005389   0.000075  -0.000000
    20  H    0.000024   0.003731   0.365842  -0.012579  -0.000121  -0.000002
    21  C   -0.057870  -0.023303  -0.071710   0.517502   0.008203   0.008684
    22  C   -0.021410  -0.039153   0.005193  -0.023312   0.486432  -0.042971
    23  H    0.000543   0.005318  -0.010676  -0.039718   0.008599  -0.000226
    24  H    0.008608  -0.000122  -0.000301   0.008719  -0.044472  -0.012288
    25  O    0.000013  -0.000218  -0.000154   0.000059   0.000000   0.000000
    26  H    0.000411   0.001674  -0.000075   0.000259  -0.000010  -0.000001
    27  H    0.000016   0.000024  -0.005588  -0.000376   0.000001   0.000000
    28  H   -0.000004   0.000004   0.002886   0.000074  -0.000000  -0.000000
    29  H    0.000029   0.000622   0.000134   0.001143   0.000004  -0.000000
    30  H    0.000003   0.000009  -0.002994   0.000250   0.000000   0.000000
    31  H   -0.000000  -0.000001   0.002766  -0.000086   0.000000  -0.000000
    32  H    0.000001   0.000004  -0.003737   0.000130  -0.000000  -0.000000
    33  H   -0.000271  -0.000011   0.000001  -0.000005   0.000012  -0.000000
    34  H    0.001004  -0.000030   0.000000  -0.000000   0.000030   0.000011
    35  H   -0.000007   0.000271  -0.000001   0.000021  -0.000104  -0.000008
    36  H    0.005413   0.000016  -0.000035  -0.000037  -0.000027  -0.000131
    37  H   -0.002064   0.000151   0.000001  -0.000004   0.000043  -0.000028
    38  H   -0.000576   0.000182  -0.000006   0.000037  -0.000050  -0.000005
    39  Ru  -0.114000   0.107398  -0.077393  -0.112511  -0.006202   0.002600
              19         20         21         22         23         24
     1  O    0.000009  -0.000001  -0.000001   0.000000   0.000000  -0.000000
     2  O   -0.000008  -0.000001   0.000029  -0.000014   0.000001  -0.000000
     3  C   -0.000000   0.000000  -0.000002   0.000006  -0.000000  -0.000000
     4  H    0.000005   0.000003   0.000188  -0.000143  -0.000001  -0.000001
     5  N    0.000007  -0.000003  -0.000009  -0.000117   0.000000   0.000002
     6  C    0.000011   0.000014   0.000731   0.005231   0.000055  -0.000283
     7  C    0.003296  -0.004050   0.000006   0.000004  -0.000018  -0.000000
     8  C   -0.002820  -0.001378  -0.000076   0.000002  -0.000008  -0.000000
     9  P   -0.020239  -0.016798   0.006111  -0.000316   0.000083   0.000009
    10  H   -0.000000  -0.000001  -0.000138   0.000671  -0.000002   0.000008
    11  C   -0.000007   0.000000  -0.000002  -0.000001  -0.000000  -0.000000
    12  C    0.001972   0.000188   0.000011   0.000022  -0.000007  -0.000000
    13  C   -0.000468   0.000024  -0.057870  -0.021410   0.000543   0.008608
    14  N   -0.002363   0.003731  -0.023303  -0.039153   0.005318  -0.000122
    15  C    0.358852   0.365842  -0.071710   0.005193  -0.010676  -0.000301
    16  C   -0.005389  -0.012579   0.517502  -0.023312  -0.039718   0.008719
    17  C    0.000075  -0.000121   0.008203   0.486432   0.008599  -0.044472
    18  H   -0.000000  -0.000002   0.008684  -0.042971  -0.000226  -0.012288
    19  H    0.581577  -0.023720  -0.001134  -0.000083   0.000178   0.000002
    20  H   -0.023720   0.623816  -0.005534   0.000784   0.001768  -0.000004
    21  C   -0.001134  -0.005534   4.819902   0.487034   0.405312  -0.044674
    22  C   -0.000083   0.000784   0.487034   4.705898  -0.041040   0.403028
    23  H    0.000178   0.001768   0.405312  -0.041040   0.674315  -0.012434
    24  H    0.000002  -0.000004  -0.044674   0.403028  -0.012434   0.672090
    25  O   -0.000585  -0.000018  -0.000003  -0.000000   0.000000  -0.000000
    26  H    0.000008  -0.000001  -0.000007   0.000001  -0.000000   0.000000
    27  H   -0.000184   0.003509  -0.000021  -0.000003  -0.000017  -0.000000
    28  H   -0.000092  -0.000127   0.000007  -0.000000   0.000000   0.000000
    29  H   -0.000006  -0.000358  -0.000105  -0.000005  -0.000019  -0.000000
    30  H    0.003737  -0.000391   0.000007  -0.000000   0.000000  -0.000000
    31  H   -0.000016  -0.000143   0.000001  -0.000000   0.000000   0.000000
    32  H   -0.000834   0.002096   0.000002  -0.000000   0.000000  -0.000000
    33  H   -0.000000   0.000000   0.000000  -0.000000  -0.000000   0.000000
    34  H    0.000000  -0.000000  -0.000000  -0.000000   0.000000  -0.000000
    35  H    0.000000   0.000000  -0.000000   0.000001   0.000000   0.000000
    36  H    0.000015   0.000001  -0.000012   0.000060  -0.000001  -0.000005
    37  H    0.000000  -0.000000   0.000000  -0.000001  -0.000000   0.000000
    38  H   -0.000001   0.000000   0.000001   0.000000  -0.000000   0.000000
    39  Ru   0.005472   0.001835   0.001990  -0.007824   0.001895   0.000800
              25         26         27         28         29         30
     1  O    0.000228  -0.008836  -0.000010  -0.000221  -0.000207  -0.000192
     2  O    0.000002   0.305120   0.000597  -0.002202   0.011044   0.000008
     3  C    0.000027  -0.001915   0.000000  -0.000002   0.000011  -0.000000
     4  H    0.000001   0.000420   0.000001   0.000003   0.000004  -0.000000
     5  N   -0.000109   0.001315  -0.000001  -0.000001   0.000028   0.000004
     6  C    0.000009   0.001483  -0.000001  -0.000001   0.000008  -0.000001
     7  C   -0.000004   0.001733   0.367912   0.391566   0.390762   0.003315
     8  C   -0.000629   0.000087  -0.003541  -0.001200   0.002866   0.386738
     9  P   -0.003806   0.002321  -0.025095  -0.014335  -0.016154  -0.011266
    10  H    0.000000  -0.000041  -0.000000   0.000000  -0.000001  -0.000000
    11  C   -0.000499   0.000000   0.000000  -0.000000  -0.000000   0.000001
    12  C    0.616047  -0.000053  -0.000023  -0.000054   0.000046   0.004701
    13  C    0.000013   0.000411   0.000016  -0.000004   0.000029   0.000003
    14  N   -0.000218   0.001674   0.000024   0.000004   0.000622   0.000009
    15  C   -0.000154  -0.000075  -0.005588   0.002886   0.000134  -0.002994
    16  C    0.000059   0.000259  -0.000376   0.000074   0.001143   0.000250
    17  C    0.000000  -0.000010   0.000001  -0.000000   0.000004   0.000000
    18  H    0.000000  -0.000001   0.000000  -0.000000  -0.000000   0.000000
    19  H   -0.000585   0.000008  -0.000184  -0.000092  -0.000006   0.003737
    20  H   -0.000018  -0.000001   0.003509  -0.000127  -0.000358  -0.000391
    21  C   -0.000003  -0.000007  -0.000021   0.000007  -0.000105   0.000007
    22  C   -0.000000   0.000001  -0.000003  -0.000000  -0.000005  -0.000000
    23  H    0.000000  -0.000000  -0.000017   0.000000  -0.000019   0.000000
    24  H   -0.000000   0.000000  -0.000000   0.000000  -0.000000  -0.000000
    25  O    7.490808   0.000003  -0.000000   0.000000   0.000000   0.001274
    26  H    0.000003   0.568301   0.000011  -0.000287   0.000173   0.000000
    27  H   -0.000000   0.000011   0.634508  -0.022351  -0.019752  -0.000135
    28  H    0.000000  -0.000287  -0.022351   0.570080  -0.012333   0.000025
    29  H    0.000000   0.000173  -0.019752  -0.012333   0.499483  -0.000055
    30  H    0.001274   0.000000  -0.000135   0.000025  -0.000055   0.561736
    31  H   -0.000120   0.000013  -0.000454   0.001940   0.000026  -0.015667
    32  H   -0.000043  -0.000000   0.002997  -0.000584  -0.000214  -0.021792
    33  H   -0.000006  -0.000199   0.000000   0.000000   0.000001  -0.000000
    34  H    0.000000   0.000150  -0.000000  -0.000000   0.000000   0.000000
    35  H    0.000004   0.005234  -0.000000   0.000003  -0.000023  -0.000000
    36  H   -0.000212   0.000006   0.000000   0.000000  -0.000000   0.000001
    37  H   -0.000037   0.000002  -0.000000   0.000000   0.000000   0.000000
    38  H   -0.000020  -0.000027  -0.000000   0.000000  -0.000000  -0.000000
    39  Ru   0.037575  -0.067251   0.009622  -0.009703   0.007030  -0.006832
              31         32         33         34         35         36
     1  O   -0.000180  -0.000000   0.000113   0.000238  -0.004781   0.000012
     2  O   -0.000007   0.000000  -0.000600  -0.000192   0.014786   0.000013
     3  C    0.000000   0.000000   0.400010   0.383576   0.389617   0.006845
     4  H   -0.000000   0.000000   0.000737  -0.003246   0.003635   0.000334
     5  N    0.000000  -0.000000  -0.017790  -0.027883  -0.020087  -0.022585
     6  C   -0.000000   0.000000   0.005175  -0.005323  -0.003215  -0.001376
     7  C   -0.000184  -0.003432   0.000000   0.000000  -0.000001  -0.000000
     8  C    0.391888   0.374402  -0.000001   0.000000  -0.000001  -0.000001
     9  P   -0.018320  -0.020417   0.000142  -0.000029   0.000624   0.000256
    10  H    0.000000  -0.000000  -0.000657   0.006368  -0.001249  -0.003178
    11  C   -0.000000   0.000000  -0.001786  -0.006473   0.005918   0.394372
    12  C   -0.000160   0.000260   0.000432  -0.000045  -0.000142  -0.001464
    13  C   -0.000000   0.000001  -0.000271   0.001004  -0.000007   0.005413
    14  N   -0.000001   0.000004  -0.000011  -0.000030   0.000271   0.000016
    15  C    0.002766  -0.003737   0.000001   0.000000  -0.000001  -0.000035
    16  C   -0.000086   0.000130  -0.000005  -0.000000   0.000021  -0.000037
    17  C    0.000000  -0.000000   0.000012   0.000030  -0.000104  -0.000027
    18  H   -0.000000  -0.000000  -0.000000   0.000011  -0.000008  -0.000131
    19  H   -0.000016  -0.000834  -0.000000   0.000000   0.000000   0.000015
    20  H   -0.000143   0.002096   0.000000  -0.000000   0.000000   0.000001
    21  C    0.000001   0.000002   0.000000  -0.000000  -0.000000  -0.000012
    22  C   -0.000000  -0.000000  -0.000000  -0.000000   0.000001   0.000060
    23  H    0.000000   0.000000  -0.000000   0.000000   0.000000  -0.000001
    24  H    0.000000  -0.000000   0.000000  -0.000000   0.000000  -0.000005
    25  O   -0.000120  -0.000043  -0.000006   0.000000   0.000004  -0.000212
    26  H    0.000013  -0.000000  -0.000199   0.000150   0.005234   0.000006
    27  H   -0.000454   0.002997   0.000000  -0.000000  -0.000000   0.000000
    28  H    0.001940  -0.000584   0.000000  -0.000000   0.000003   0.000000
    29  H    0.000026  -0.000214   0.000001   0.000000  -0.000023  -0.000000
    30  H   -0.015667  -0.021792  -0.000000   0.000000  -0.000000   0.000001
    31  H    0.550877  -0.019117   0.000000   0.000000   0.000000   0.000000
    32  H   -0.019117   0.621789   0.000000  -0.000000   0.000000   0.000000
    33  H    0.000000   0.000000   0.568851  -0.034433  -0.019420   0.000611
[...]
    12  C(13)              0.04448      50.00363      17.84254      16.67941
    13  C(13)              0.02483      27.91464       9.96064       9.31132
    14  N(14)             -0.00320      -1.03487      -0.36927      -0.34520
    15  C(13)             -0.00661      -7.42980      -2.65114      -2.47831
    16  C(13)              0.02046      22.99830       8.20637       7.67141
    17  C(13)             -0.02011     -22.60934      -8.06757      -7.54166
    18  H(1)               0.00118       5.27918       1.88374       1.76094
    19  H(1)               0.00293      13.09444       4.67242       4.36784
    20  H(1)               0.00046       2.04576       0.72998       0.68239
    21  C(13)             -0.01807     -20.31170      -7.24772      -6.77525
    22  C(13)              0.03692      41.50637      14.81050      13.84503
    23  H(1)               0.00086       3.86204       1.37807       1.28824
    24  H(1)              -0.00454     -20.27941      -7.23620      -6.76448
    25  O(17)              0.03225     -19.55173      -6.97654      -6.52176
    26  H(1)              -0.00010      -0.42803      -0.15273      -0.14278
    27  H(1)               0.00139       6.22124       2.21989       2.07518
    28  H(1)              -0.00019      -0.84664      -0.30210      -0.28241
    29  H(1)               0.00010       0.45441       0.16214       0.15157
    30  H(1)              -0.00004      -0.16963      -0.06053      -0.05658
    31  H(1)              -0.00003      -0.11196      -0.03995      -0.03735
    32  H(1)              -0.00012      -0.52234      -0.18638      -0.17423
    33  H(1)               0.00005       0.20437       0.07292       0.06817
    34  H(1)               0.00012       0.54813       0.19559       0.18284
    35  H(1)               0.00001       0.05460       0.01948       0.01821
    36  H(1)              -0.00005      -0.24398      -0.08706      -0.08138
    37  H(1)               0.00010       0.46538       0.16606       0.15524
    38  H(1)              -0.00004      -0.15933      -0.05685      -0.05315
    39  Ru(99)             0.00000      -0.00005      -0.00002      -0.00002
 --------------------------------------------------------
       Center         ----  Spin Dipole Couplings  ----
                      3XX-RR        3YY-RR        3ZZ-RR
 --------------------------------------------------------
     1   Atom       -0.054202      0.111581     -0.057379
     2   Atom       -0.094090     -0.021423      0.115513
     3   Atom        0.002337     -0.001491     -0.000846
     4   Atom        0.001275     -0.000719     -0.000557
     5   Atom       -0.000788      0.011894     -0.011106
     6   Atom        0.003811      0.001895     -0.005706
     7   Atom        0.004502     -0.005847      0.001345
     8   Atom        0.001742     -0.001056     -0.000686
     9   Atom       -0.006299      0.004954      0.001345
    10   Atom        0.003443     -0.002090     -0.001354
    11   Atom        0.002310      0.000239     -0.002549
    12   Atom       -0.004020     -0.029739      0.033758
    13   Atom       -0.046484     -0.074174      0.120658
    14   Atom       -0.020993     -0.055786      0.076779
    15   Atom        0.003162     -0.000626     -0.002536
    16   Atom       -0.047001     -0.069899      0.116900
    17   Atom        0.020583      0.036929     -0.057512
    18   Atom       -0.001474      0.004118     -0.002644
    19   Atom        0.000495     -0.000421     -0.000074
    20   Atom        0.003288     -0.001836     -0.001452
    21   Atom        0.019796      0.029066     -0.048863
    22   Atom       -0.099440     -0.104898      0.204338
    23   Atom       -0.000246      0.003091     -0.002845
    24   Atom       -0.017011      0.018266     -0.001255
    25   Atom       -0.033189     -0.058231      0.091420
    26   Atom        0.004618     -0.006658      0.002040
    27   Atom        0.002636     -0.001497     -0.001138
    28   Atom        0.001789     -0.001848      0.000059
    29   Atom        0.001306     -0.000671     -0.000635
    30   Atom        0.001251     -0.000766     -0.000484
    31   Atom        0.001565     -0.000449     -0.001116
    32   Atom        0.001383     -0.000820     -0.000563
    33   Atom        0.001535     -0.000077     -0.001458
    34   Atom        0.001727     -0.000782     -0.000945
    35   Atom        0.001775     -0.001514     -0.000261
    36   Atom        0.000523      0.000262     -0.000785
    37   Atom        0.002282     -0.000788     -0.001494
    38   Atom        0.002259     -0.000779     -0.001480
    39   Atom       -0.054658     -0.023994      0.078652
 --------------------------------------------------------
                        XY            XZ            YZ
 --------------------------------------------------------
     1   Atom       -0.067200      0.038748     -0.074430
     2   Atom        0.033913     -0.044867     -0.158372
     3   Atom        0.001858     -0.000603     -0.000157
     4   Atom       -0.002844     -0.004866     -0.001052
     5   Atom       -0.016355     -0.005416      0.008325
     6   Atom        0.000349     -0.001050     -0.000621
     7   Atom        0.004134      0.011097      0.004974
     8   Atom        0.000012      0.000193      0.000102
     9   Atom       -0.026235     -0.015297     -0.000433
    10   Atom        0.000441     -0.002343     -0.000539
    11   Atom       -0.000759      0.002943     -0.000981
    12   Atom        0.014775     -0.028358     -0.039731
    13   Atom        0.034193      0.106740      0.071398
    14   Atom        0.016231      0.069357      0.025827
    15   Atom        0.000058     -0.002562     -0.000247
    16   Atom        0.029035      0.093394      0.062000
    17   Atom       -0.009757     -0.040024     -0.033899
    18   Atom        0.000522     -0.000882     -0.002919
    19   Atom       -0.001106     -0.003541     -0.000058
    20   Atom        0.000176     -0.001973     -0.000508
    21   Atom       -0.014184     -0.030657     -0.022895
    22   Atom        0.040914      0.134723      0.110815
    23   Atom       -0.002026     -0.000737     -0.001387
    24   Atom       -0.005226      0.008549     -0.003883
    25   Atom        0.024064     -0.052700     -0.031393
    26   Atom       -0.002481      0.007347     -0.005232
    27   Atom        0.001163      0.000542     -0.000154
    28   Atom       -0.000315      0.002527     -0.001247
    29   Atom        0.001352      0.001957      0.002092
    30   Atom       -0.000936     -0.001373      0.000618
    31   Atom       -0.001259     -0.000345      0.000335
    32   Atom       -0.000541     -0.000731      0.000184
    33   Atom        0.002415     -0.001053     -0.000705
    34   Atom        0.000956     -0.001124     -0.000362
    35   Atom        0.001469     -0.002636     -0.001364
    36   Atom        0.000562      0.003122      0.001404
    37   Atom        0.000837      0.000922      0.000142
    38   Atom        0.001214      0.001631      0.001418
    39   Atom        0.043126     -0.022650      0.046859
 --------------------------------------------------------


 ---------------------------------------------------------------------------------
              Anisotropic Spin Dipole Couplings in Principal Axis System
 ---------------------------------------------------------------------------------

       Atom             a.u.   MegaHertz   Gauss  10(-4) cm-1        Axes

              Baa    -0.0952     6.890     2.459     2.298 -0.6022  0.0898  0.7933
     1 O(17)  Bbb    -0.0711     5.146     1.836     1.717  0.7275  0.4709  0.4990
              Bcc     0.1663   -12.036    -4.295    -4.015 -0.3287  0.8776 -0.3489
 
              Baa    -0.1261     9.124     3.256     3.043 -0.1596  0.8389  0.5203
     2 O(17)  Bbb    -0.1032     7.470     2.665     2.492  0.9723  0.0423  0.2300
              Bcc     0.2293   -16.594    -5.921    -5.535 -0.1710 -0.5426  0.8224
 
              Baa    -0.0022    -0.302    -0.108    -0.101 -0.3816  0.9224 -0.0604
     3 C(13)  Bbb    -0.0009    -0.126    -0.045    -0.042  0.1174  0.1132  0.9866
              Bcc     0.0032     0.427     0.153     0.143  0.9169  0.3694 -0.1515
 
              Baa    -0.0060    -3.180    -1.135    -1.061  0.6128  0.4613  0.6416
     4 H(1)   Bbb     0.0002     0.133     0.048     0.044 -0.0980  0.8500 -0.5175
              Bcc     0.0057     3.047     1.087     1.016  0.7841 -0.2542 -0.5661
 
              Baa    -0.0138    -0.533    -0.190    -0.178  0.0436 -0.2826  0.9582
     5 N(14)  Bbb    -0.0120    -0.461    -0.165    -0.154  0.8378  0.5329  0.1191
              Bcc     0.0258     0.994     0.355     0.331 -0.5443  0.7976  0.2600
 
              Baa    -0.0059    -0.787    -0.281    -0.262  0.1049  0.0746  0.9917
     6 C(13)  Bbb     0.0019     0.249     0.089     0.083 -0.2024  0.9779 -0.0522
              Bcc     0.0040     0.538     0.192     0.179  0.9737  0.1952 -0.1177
 
              Baa    -0.0090    -1.214    -0.433    -0.405 -0.4029 -0.5801  0.7079
     7 C(13)  Bbb    -0.0070    -0.933    -0.333    -0.311 -0.5690  0.7646  0.3027
              Bcc     0.0160     2.147     0.766     0.716  0.7168  0.2809  0.6381
 
              Baa    -0.0011    -0.145    -0.052    -0.048  0.0131  0.9669 -0.2550
     8 C(13)  Bbb    -0.0007    -0.090    -0.032    -0.030 -0.0781  0.2552  0.9637
              Bcc     0.0018     0.236     0.084     0.079  0.9969  0.0073  0.0789
 
              Baa    -0.0321    -6.946    -2.479    -2.317  0.7613  0.5427  0.3549
     9 P(31)  Bbb     0.0026     0.564     0.201     0.188 -0.0580 -0.4881  0.8709
              Bcc     0.0295     6.383     2.278     2.129 -0.6458  0.6836  0.3401
 
              Baa    -0.0026    -1.371    -0.489    -0.457  0.2466  0.6156  0.7485
    10 H(1)   Bbb    -0.0019    -1.006    -0.359    -0.336 -0.3037  0.7825 -0.5435
              Bcc     0.0045     2.377     0.848     0.793  0.9203  0.0933 -0.3799
 
              Baa    -0.0040    -0.539    -0.192    -0.180 -0.4045  0.1364  0.9043
    11 C(13)  Bbb    -0.0000    -0.001    -0.000    -0.000  0.3141  0.9494 -0.0027
              Bcc     0.0040     0.540     0.193     0.180  0.8589 -0.2830  0.4268
 
              Baa    -0.0489    -6.559    -2.340    -2.188 -0.0294  0.9048  0.4249
    12 C(13)  Bbb    -0.0183    -2.460    -0.878    -0.821  0.9119 -0.1499  0.3821
              Bcc     0.0672     9.019     3.218     3.008 -0.4094 -0.3987  0.8206
 
              Baa    -0.0987   -13.241    -4.725    -4.417  0.7929  0.3491 -0.4995
    13 C(13)  Bbb    -0.0972   -13.041    -4.653    -4.350 -0.4418  0.8939 -0.0765
              Bcc     0.1959    26.282     9.378     8.767  0.4198  0.2813  0.8629
 
              Baa    -0.0623    -2.401    -0.857    -0.801 -0.4477  0.8923  0.0576
    14 N(14)  Bbb    -0.0558    -2.152    -0.768    -0.718  0.7694  0.4172 -0.4838
              Bcc     0.1181     4.553     1.625     1.519  0.4557  0.1723  0.8733
 
              Baa    -0.0035    -0.474    -0.169    -0.158  0.3559  0.0722  0.9317
    15 C(13)  Bbb    -0.0006    -0.082    -0.029    -0.028 -0.0537  0.9969 -0.0567
              Bcc     0.0041     0.557     0.199     0.186  0.9330  0.0299 -0.3587
 
              Baa    -0.0899   -12.067    -4.306    -4.025  0.7964 -0.5750 -0.1873
    16 C(13)  Bbb    -0.0882   -11.832    -4.222    -3.947  0.4548  0.7737 -0.4410
              Bcc     0.1781    23.899     8.528     7.972  0.3985  0.2661  0.8777
 
              Baa    -0.0845   -11.339    -4.046    -3.782  0.3644  0.2775  0.8890
    17 C(13)  Bbb     0.0360     4.831     1.724     1.612  0.9061 -0.3259 -0.2697
              Bcc     0.0485     6.507     2.322     2.171  0.2149  0.9038 -0.3701
 
              Baa    -0.0039    -2.084    -0.743    -0.695  0.2631  0.3147  0.9120
    18 H(1)   Bbb    -0.0014    -0.743    -0.265    -0.248  0.9576 -0.2004 -0.2071
              Bcc     0.0053     2.826     1.009     0.943  0.1176  0.9278 -0.3540
 
              Baa    -0.0035    -1.893    -0.675    -0.631  0.6757  0.2519  0.6928
    19 H(1)   Bbb    -0.0004    -0.190    -0.068    -0.063 -0.0400  0.9509 -0.3068
              Bcc     0.0039     2.083     0.743     0.695  0.7361 -0.1796 -0.6526
 
              Baa    -0.0025    -1.310    -0.468    -0.437  0.2514  0.5696  0.7825
    20 H(1)   Bbb    -0.0016    -0.836    -0.298    -0.279 -0.2409  0.8199 -0.5194
              Bcc     0.0040     2.146     0.766     0.716  0.9374  0.0580 -0.3433
 
              Baa    -0.0678    -9.098    -3.246    -3.035  0.3564  0.2640  0.8962
    21 C(13)  Bbb     0.0284     3.816     1.362     1.273  0.7381  0.5085 -0.4434
              Bcc     0.0394     5.282     1.885     1.762 -0.5728  0.8196 -0.0136
 
              Baa    -0.1507   -20.220    -7.215    -6.745  0.9208  0.0936 -0.3787
    22 C(13)  Bbb    -0.1401   -18.795    -6.707    -6.269 -0.1922  0.9536 -0.2316
              Bcc     0.2907    39.015    13.922    13.014  0.3394  0.2861  0.8961
 
              Baa    -0.0036    -1.930    -0.689    -0.644  0.3694  0.2938  0.8816
    23 H(1)   Bbb    -0.0006    -0.300    -0.107    -0.100  0.8420  0.2956 -0.4513
              Bcc     0.0042     2.229     0.795     0.744 -0.3932  0.9090 -0.1382
 
              Baa    -0.0210   -11.222    -4.004    -3.743  0.9206  0.0847 -0.3813
    24 H(1)   Bbb     0.0007     0.384     0.137     0.128  0.3415  0.2989  0.8911
              Bcc     0.0203    10.839     3.867     3.615 -0.1895  0.9505 -0.2462
 
              Baa    -0.0728     5.271     1.881     1.758 -0.5240  0.8517 -0.0053
    25 O(17)  Bbb    -0.0460     3.326     1.187     1.110  0.7766  0.4804  0.4076
              Bcc     0.1188    -8.597    -3.068    -2.868 -0.3498 -0.2095  0.9131
 
              Baa    -0.0092    -4.905    -1.750    -1.636 -0.0918  0.8783  0.4692
    26 H(1)   Bbb    -0.0031    -1.647    -0.588    -0.549  0.6977  0.3929 -0.5990
              Bcc     0.0123     6.552     2.338     2.185  0.7104 -0.2723  0.6489
 
              Baa    -0.0019    -1.022    -0.365    -0.341 -0.2712  0.8902  0.3660
    27 H(1)   Bbb    -0.0011    -0.578    -0.206    -0.193 -0.0144 -0.3839  0.9232
              Bcc     0.0030     1.599     0.571     0.534  0.9624  0.2451  0.1169
 
              Baa    -0.0027    -1.449    -0.517    -0.483 -0.2811  0.7533  0.5946
    28 H(1)   Bbb    -0.0011    -0.563    -0.201    -0.188  0.5518  0.6338 -0.5421
              Bcc     0.0038     2.012     0.718     0.671  0.7852 -0.1758  0.5938
 
              Baa    -0.0028    -1.497    -0.534    -0.499 -0.1460 -0.6436  0.7513
    29 H(1)   Bbb    -0.0009    -0.492    -0.175    -0.164  0.7007 -0.6034 -0.3807
              Bcc     0.0037     1.989     0.710     0.663  0.6984  0.4709  0.5390
 
              Baa    -0.0013    -0.691    -0.246    -0.230  0.2590 -0.5044  0.8237
    30 H(1)   Bbb    -0.0011    -0.591    -0.211    -0.197  0.5074  0.7967  0.3284
              Bcc     0.0024     1.282     0.457     0.428  0.8219 -0.3329 -0.4623
 
              Baa    -0.0013    -0.683    -0.244    -0.228 -0.1440 -0.5503  0.8225
    31 H(1)   Bbb    -0.0010    -0.509    -0.181    -0.170  0.4321  0.7127  0.5525
              Bcc     0.0022     1.191     0.425     0.397  0.8902 -0.4350 -0.1352
 
              Baa    -0.0009    -0.505    -0.180    -0.169  0.1992  0.9760 -0.0881
    32 H(1)   Bbb    -0.0008    -0.431    -0.154    -0.144  0.3212  0.0199  0.9468
              Bcc     0.0018     0.936     0.334     0.312  0.9258 -0.2168 -0.3095
 
              Baa    -0.0018    -0.984    -0.351    -0.328 -0.5990  0.6137 -0.5144
    33 H(1)   Bbb    -0.0017    -0.933    -0.333    -0.311 -0.1416  0.5511  0.8223
              Bcc     0.0036     1.917     0.684     0.639  0.7881  0.5654 -0.2432
 
              Baa    -0.0014    -0.723    -0.258    -0.241  0.3289  0.0480  0.9432
    34 H(1)   Bbb    -0.0011    -0.589    -0.210    -0.196 -0.2993  0.9525  0.0558
              Bcc     0.0025     1.312     0.468     0.438  0.8957  0.3007 -0.3276
 
              Baa    -0.0024    -1.290    -0.460    -0.430  0.1516  0.7411  0.6541
    35 H(1)   Bbb    -0.0018    -0.985    -0.352    -0.329  0.6182 -0.5874  0.5223
              Bcc     0.0043     2.276     0.812     0.759  0.7712  0.3252 -0.5472
 
              Baa    -0.0035    -1.855    -0.662    -0.619 -0.5838 -0.2071  0.7851
    36 H(1)   Bbb    -0.0001    -0.063    -0.023    -0.021 -0.4223  0.9033 -0.0758
              Bcc     0.0036     1.918     0.684     0.640  0.6934  0.3758  0.6148
 
              Baa    -0.0017    -0.912    -0.326    -0.304 -0.2376  0.0660  0.9691
    37 H(1)   Bbb    -0.0010    -0.528    -0.189    -0.176 -0.2145  0.9695 -0.1186
              Bcc     0.0027     1.441     0.514     0.481  0.9474  0.2361  0.2162
 
              Baa    -0.0027    -1.424    -0.508    -0.475 -0.1449 -0.5324  0.8340
    38 H(1)   Bbb    -0.0008    -0.451    -0.161    -0.150 -0.5081  0.7633  0.3990
              Bcc     0.0035     1.875     0.669     0.626  0.8490  0.3659  0.3811
 
              Baa    -0.0973     2.384     0.851     0.795  0.7513 -0.6072  0.2584
    39 Ru(99) Bbb     0.0002    -0.006    -0.002    -0.002  0.6586  0.7143 -0.2366
              Bcc     0.0971    -2.378    -0.849    -0.793 -0.0409  0.3480  0.9366
 

 ---------------------------------------------------------------------------------

 1\1\GINC-NODE290\Scan\UPBE1PBE\GenECP\C12H20N2O3P1Ru1(2)\JS1212\07-Jun
 -2020\0\\# opt=ModRedundant genecp pbe1pbe EmpiricalDispersion=GD3BJ N
 oSymm Geom=AllCheck\\Title Card Required\\0,2\O,-0.4215032553,-2.14272
 95369,1.3823538695\O,-0.4689475198,-1.3244541726,2.5769767191\C,-3.272
 4819891,-1.1810235681,1.3955407846\H,-2.4180283326,1.1522906793,1.8308
 481448\N,-2.6945956536,-0.3023624223,0.3763354307\C,-2.7914814073,1.11
 16150425,0.7910511954\C,2.6177711307,0.7286744659,1.2697700261\C,2.925
 9006896,-1.0513297318,-0.9662949411\P,1.6898768545,0.0247680726,-0.154
 1886634\H,-3.8430047891,1.4553205524,0.7882269524\C,-3.3887746573,-0.4
 931015986,-0.9004983368\C,-0.4271790211,-1.4509968769,-1.4635650709\C,
 -1.9249789805,1.9971562069,-0.0488775447\N,-0.7153810135,1.4276262618,
 -0.36229414\C,1.4960394415,1.4606229034,-1.3300832076\C,0.2322692176,2
 .1946994376,-0.9990001414\C,-2.2194082888,3.3050740677,-0.3750047518\H
 ,-3.1950664883,3.7153045958,-0.1075239315\H,1.3886304077,0.9768694511,
 -2.3193811477\H,2.3717409424,2.125748633,-1.3726833047\C,-0.0113657079
 ,3.5173653713,-1.3115367507\C,-1.2543887544,4.0981377378,-1.0113561336
 \H,0.7681846462,4.0982176688,-1.8077569059\H,-1.4610509314,5.137829839
 5,-1.2638974178\O,-0.3064162557,-1.9201244421,-2.5264814059\H,0.453446
 2428,-1.3572397567,2.875101384\H,3.5847061022,1.1526276039,0.955734373
 4\H,2.7936300338,-0.0620439749,2.0139719502\H,2.0019243169,1.514073648
 3,1.7311306797\H,2.4921306402,-1.4474655716,-1.895237826\H,3.137234955
 2,-1.899335721,-0.298831097\H,3.8592172327,-0.511622412,-1.1862692316\
 H,-3.1157563771,-2.2234556607,1.0939552058\H,-4.3531803149,-0.97719481
 54,1.517197225\H,-2.7461748442,-1.0304807259,2.3450538143\H,-2.9565621
 231,0.1746847446,-1.65748034\H,-4.4686327115,-0.2737406594,-0.79398309
 34\H,-3.2604443266,-1.5318685397,-1.2286933448\Ru,-0.4745191108,-0.534
 9367976,0.1069309735\\Version=ES64L-G16RevA.03\HF=-1239.8544822,-1239.
 8504032,-1239.8332423,-1239.8090935,-1239.7666689,-1239.7761156\S2=0.7
 60552,0.760205,0.757786,0.760209,0.760659,0.773038\S2-1=0.,0.,0.,0.,0.
 ,0.\S2A=0.750079,0.750073,0.750051,0.75008,0.750084,0.750363\RMSD=6.57
 3e-09,9.379e-09,2.927e-09,7.328e-09,8.899e-09,8.293e-09\PG=C01 [X(C12H
 20N2O3P1Ru1)]\\@


 THE NUMBERS ARE MEANINGLESS, BUT THE TRENDS ARE IMPORTANT.
     -- LARRY BURGGRAF
 Job cpu time:       3 days 11 hours 26 minutes  3.9 seconds.
 Elapsed time:       0 days  4 hours 11 minutes  3.6 seconds.
 File lengths (MBytes):  RWF=    173 Int=      0 D2E=      0 Chk=     21 Scr=      1
 Normal termination of Gaussian 16 at Sun Jun  7 21:36:14 2020.
