 Entering Gaussian System, Link 0=g16
 Initial command:
 /cluster/chemistry/gaussian/g16/l1.exe "/scratch/js1212.769348/scratch/Gau-26127.inp" -scrdir="/scratch/js1212.769348/scratch/"
 Entering Link 1 = /cluster/chemistry/gaussian/g16/l1.exe PID=     26129.
  
 Copyright (c) 1988,1990,1992,1993,1995,1998,2003,2009,2016,
            Gaussian, Inc.  All Rights Reserved.
  
 This is part of the Gaussian(R) 16 program.  It is based on
 the Gaussian(R) 09 system (copyright 2009, Gaussian, Inc.),
 the Gaussian(R) 03 system (copyright 2003, Gaussian, Inc.),
 the Gaussian(R) 98 system (copyright 1998, Gaussian, Inc.),
 the Gaussian(R) 94 system (copyright 1995, Gaussian, Inc.),
 the Gaussian 92(TM) system (copyright 1992, Gaussian, Inc.),
 the Gaussian 90(TM) system (copyright 1990, Gaussian, Inc.),
 the Gaussian 88(TM) system (copyright 1988, Gaussian, Inc.),
 the Gaussian 86(TM) system (copyright 1986, Carnegie Mellon
 University), and the Gaussian 82(TM) system (copyright 1983,
 Carnegie Mellon University). Gaussian is a federally registered
 trademark of Gaussian, Inc.
  
 This software contains proprietary and confidential information,
 including trade secrets, belonging to Gaussian, Inc.
  
 This software is provided under written license and may be
 used, copied, transmitted, or stored only in accord with that
 written license.
  
 The following legend is applicable only to US Government
 contracts under FAR:
  
                    RESTRICTED RIGHTS LEGEND
  
 Use, reproduction and disclosure by the US Government is
 subject to restrictions as set forth in subparagraphs (a)
 and (c) of the Commercial Computer Software - Restricted
 Rights clause in FAR 52.227-19.
  
 Gaussian, Inc.
 340 Quinnipiac St., Bldg. 40, Wallingford CT 06492
  
  
 ---------------------------------------------------------------
 Warning -- This program may not be used in any manner that
 competes with the business of Gaussian, Inc. or will provide
 assistance to any competitor of Gaussian, Inc.  The licensee
 of this program is prohibited from giving any competitor of
 Gaussian, Inc. access to this program.  By using this program,
 the user acknowledges that Gaussian, Inc. is engaged in the
 business of creating and licensing software in the field of
 computational chemistry and represents and warrants to the
 licensee that it is not a competitor of Gaussian, Inc. and that
 it will not use this program in any manner prohibited above.
 ---------------------------------------------------------------
  

 Cite this work as:
 Gaussian 16, Revision A.03,
 M. J. Frisch, G. W. Trucks, H. B. Schlegel, G. E. Scuseria, 
 M. A. Robb, J. R. Cheeseman, G. Scalmani, V. Barone, 
 G. A. Petersson, H. Nakatsuji, X. Li, M. Caricato, A. V. Marenich, 
 J. Bloino, B. G. Janesko, R. Gomperts, B. Mennucci, H. P. Hratchian, 
 J. V. Ortiz, A. F. Izmaylov, J. L. Sonnenberg, D. Williams-Young, 
 F. Ding, F. Lipparini, F. Egidi, J. Goings, B. Peng, A. Petrone, 
 T. Henderson, D. Ranasinghe, V. G. Zakrzewski, J. Gao, N. Rega, 
 G. Zheng, W. Liang, M. Hada, M. Ehara, K. Toyota, R. Fukuda, 
 J. Hasegawa, M. Ishida, T. Nakajima, Y. Honda, O. Kitao, H. Nakai, 
 T. Vreven, K. Throssell, J. A. Montgomery, Jr., J. E. Peralta, 
 F. Ogliaro, M. J. Bearpark, J. J. Heyd, E. N. Brothers, K. N. Kudin, 
 V. N. Staroverov, T. A. Keith, R. Kobayashi, J. Normand, 
 K. Raghavachari, A. P. Rendell, J. C. Burant, S. S. Iyengar, 
 J. Tomasi, M. Cossi, J. M. Millam, M. Klene, C. Adamo, R. Cammi, 
 J. W. Ochterski, R. L. Martin, K. Morokuma, O. Farkas, 
 J. B. Foresman, and D. J. Fox, Gaussian, Inc., Wallingford CT, 2016.
 
 ******************************************
 Gaussian 16:  ES64L-G16RevA.03 25-Dec-2016
                20-Aug-2020 
 ******************************************
 %rwf=/scratch/js1212.769348/F-R2-R2-Down-GP-Disp-TD-SMD-NStates25.rwf
 %nosave
 %nprocshared=20
 Will use up to   20 processors via shared memory.
 %mem=3000MB
 %oldchk=/data/js1212/200229_g16/F-R2-R2-Down-GPOF-Disp.chk
 %chk=/scratch/js1212.769348/F-R2-R2-Down-GP-Disp-TD-SMD-NStates25.chk
 Copying data from "/data/js1212/200229_g16/F-R2-R2-Down-GPOF-Disp.chk" to current chk file "/scratch/js1212.769348/F-R2-R2-Down-GP-Disp-TD-SMD-NStates25.chk"
 IOpt=  2 FromEx=T IUOpen= 4 IOptOp= 5 NList=   0 IFRang= 0 IUIn= 4 IUOut= 2.
 ----------------------------------------------------------------------
 # genecp pbe1pbe EmpiricalDispersion=GD3BJ scrf=(SMD,solvent=water) td
 =nstates=25 geom=allcheck
 ----------------------------------------------------------------------
 1/29=7,38=1,172=1/1;
 2/12=2,40=1/2;
 3/5=7,11=9,14=-4,16=1,17=8,25=1,30=1,70=32201,72=1,74=-13,124=41/1,2,3,8;
 4//1;
 5/5=2,38=5,53=1/2;
 8/6=1,10=1,108=25/1;
 9/41=25,42=1,70=2/14;
 6/7=2,8=2,9=2,10=2/1;
 99/5=1,9=1/99;
 Structure from the checkpoint file:  "/scratch/js1212.769348/F-R2-R2-Down-GP-Disp-TD-SMD-NStates25.chk"
 -------------------
 Title Card Required
 -------------------
 Charge =  0 Multiplicity = 1
 Redundant internal coordinates found in file.  (old form).
 H,0,-1.1823989557,-8.4220344131,1.3236869632
 C,0,-0.4561749232,-9.1266269198,1.7517512644
 H,0,-0.9018199445,-9.5608642357,2.6600675227
 H,0,0.4455362397,-8.5579366754,2.0237030194
 H,0,4.9146020494,-8.1399335944,-2.0957775885
 O,0,2.5085671279,-7.9580063369,0.9523216095
 H,0,5.6772903926,-6.8494586988,-0.1781139395
 O,0,2.4592774557,-9.7932847654,-1.1220083609
 H,0,1.749645358,-7.936643581,0.3470135634
 C,0,-0.1130240504,-10.1645226582,0.7051939661
 H,0,6.0701418705,-8.8346076326,-3.2750161934
 H,0,-0.9807081909,-10.8248240747,0.5083986941
 C,0,5.8916897124,-8.6459457283,-2.2018894837
 H,0,4.6130523922,-7.1487012084,1.2017539955
 H,0,6.6751154108,-7.9506463585,-1.86593412
 H,0,0.1395837718,-9.6663160216,-0.2398618992
 C,0,5.6682498073,-7.0895631956,0.8935170598
 H,0,6.16270984,-6.2642837109,1.433598212
 H,0,1.2799328669,-11.4867638496,-0.9268284801
 Ru,0,3.1134425296,-9.9341553799,0.8300373217
 H,0,3.9563260045,-10.6837230522,-2.0352282574
 N,0,1.0587190464,-10.9893595953,1.065354488
 C,0,1.2436692387,-12.0271857651,0.0328418299
 C,0,5.9559948524,-9.9848229283,-1.4626434796
 H,0,5.2763428124,-11.0046634527,-3.2238568519
 H,0,7.9767460325,-8.054042321,-0.2973253236
 C,0,5.0115168823,-10.9793258433,-2.1527446415
 C,0,6.4024913194,-8.3989337557,1.1992156529
 P,0,5.3673511901,-9.7451256251,0.3467542144
 H,0,0.4112303756,-12.7512448249,0.0179627591
 C,0,7.8637091159,-8.3140445295,0.7624230692
 H,0,0.9341441309,-10.7784306495,3.136024166
 H,0,-1.2328739281,-11.9426512167,2.5034647186
 H,0,8.352300151,-7.5163582296,1.3470205676
 C,0,0.9287531023,-11.598757243,2.4078121533
 H,0,7.6152887477,-10.672914472,-2.6284723733
 C,0,3.4092421581,-9.9351787207,2.6396253936
 C,0,7.3700591208,-10.5686390155,-1.5580757254
 H,0,5.3716451865,-8.6435737316,3.1249229056
 C,0,6.3854516838,-8.6252730959,2.7116691964
 H,0,8.1457714429,-9.9411058715,-1.1063340301
 H,0,6.9161200918,-7.7839929786,3.1874601328
 C,0,2.5573781026,-12.7273867268,0.2073378808
 N,0,3.5709520324,-11.9204096557,0.5755167724
 C,0,-0.2859691263,-12.4864862125,2.6349062369
 H,0,5.1414663788,-12.001793298,-1.7660645657
 H,0,1.8479446665,-12.1745858836,2.5905097092
 H,0,8.4143752465,-9.2468936558,0.9589370203
 H,0,-0.3013102939,-13.3647281668,1.9720749154
 C,0,5.8528298793,-11.3866861393,1.1248033252
 H,0,-0.261842796,-12.861582433,3.6690736857
 H,0,7.4355562148,-11.5765350941,-1.12142924
 C,0,4.8230987812,-12.4020997587,0.7363528311
 C,0,2.7686701939,-14.0834915514,-0.0120182842
 H,0,6.9100388786,-9.5467111713,3.0088989255
 H,0,1.9333281791,-14.7215187366,-0.3027556145
 H,0,5.7892611657,-11.217812752,2.2120659477
 H,0,6.8698901944,-11.7308473862,0.8942405843
 C,0,5.0900409084,-13.7523517031,0.5239002802
 C,0,4.0529500801,-14.6004251659,0.1450311019
 H,0,6.1058465622,-14.1275255832,0.6519128569
 H,0,4.2446716006,-15.6613703689,-0.0244907723
 O,0,3.4868364291,-9.9109787315,3.8015994301
 C,0,1.6386953958,-9.9963239215,-5.0877241258
 H,0,1.005880273,-6.3934943128,1.3457867238
 O,0,3.2138898038,-7.1648812797,-1.7039423597
 H,0,3.065434429,-5.1879006701,1.1076803571
 O,0,0.455682466,-7.6842103191,-1.5212518531
 H,0,3.1235756209,-7.2081432878,-0.731264138
 C,0,1.8798365867,-8.9543975852,-4.0066942553
 H,0,-0.4380218288,-5.9306204208,2.2798040778
 C,0,0.3614103744,-5.5473473967,1.6239144359
 H,0,3.830189444,-5.1498717356,-0.482819607
 H,0,0.9672396586,-4.8555441848,2.2258840312
 C,0,3.4823088877,-4.5148313804,0.3453252309
 H,0,4.3459109459,-3.9876225117,0.7848244338
 H,0,-0.4493256982,-8.2301607318,-3.4336663604
 Ru,0,1.5612099379,-6.1881245542,-2.4488024255
 H,0,-0.8671133672,-6.7190670595,-0.5709668921
 N,0,1.3335306379,-7.6041247265,-4.2624539654
 C,0,-0.1402135563,-7.6581812419,-4.3250452847
 C,0,-0.2818125163,-4.8565773578,0.4195600574
 H,0,-2.0771985511,-6.0202511708,0.5766154132
 H,0,1.6451722705,-3.0670950376,1.8521798615
 C,0,-1.3285978244,-5.7895247655,-0.2011516757
 C,0,2.4624713812,-3.4860900586,-0.1524817601
 P,0,1.0550979499,-4.5324484461,-0.9041536973
 H,0,-0.4945059284,-8.1507152543,-5.2469265876
 C,0,2.0568679877,-2.5443297484,0.981002209
 H,0,1.526166559,-5.9801091624,-5.5566534117
 H,0,3.8575570506,-6.7910063182,-4.6717032354
 H,0,2.9608572006,-2.0107862105,1.3197953045
 C,0,1.8680392869,-7.0249492525,-5.5131544331
 H,0,-1.7632913188,-3.8936156274,1.6285371661
 C,0,2.5979019225,-5.0100964976,-3.3844856077
 C,0,-1.0172217384,-3.5913030164,0.8743318451
 H,0,3.4868790766,-3.1968538686,-2.0835344453
 C,0,3.1198421693,-2.6205584556,-1.2290242064
 H,0,-0.373689042,-2.8363876163,1.33783518
 H,0,3.9920938693,-2.1214431232,-0.7750043298
 C,0,-0.7713870153,-6.3054432454,-4.1879075766
 N,0,-0.1628008277,-5.4798577183,-3.3175700105
 C,0,3.3805895731,-7.0895312613,-5.6151852898
 H,0,-1.8685712618,-5.3016327101,-1.0280662178
 H,0,1.4119115412,-7.5414647152,-6.380231124
 H,0,1.3349070382,-1.782235631,0.6507435958
 H,0,3.7318768371,-8.1002454285,-5.8676147997
 C,0,0.1490927375,-3.4143393367,-2.111504902
 H,0,3.7248266292,-6.4057241732,-6.4042232079
 H,0,-1.5766677972,-3.1193437148,0.052693462
 C,0,-0.6590267691,-4.2520205938,-3.0549527011
 C,0,-1.9395733457,-5.9207245088,-4.8373494657
 H,0,2.4507318046,-1.8260404319,-1.594744305
 H,0,-2.4153429387,-6.6011230105,-5.5443761487
 H,0,0.9441162373,-2.9190867023,-2.6929149448
 H,0,-0.459341913,-2.6280362398,-1.6449808476
 C,0,-1.8372134369,-3.8249330688,-3.6627101793
 C,0,-2.4829677142,-4.6687480012,-4.5618295944
 H,0,-2.2343608054,-2.8355295138,-3.4341155918
 H,0,-3.4034123981,-4.3474799401,-5.0525771039
 H,0,1.0952514994,-8.4055944022,-1.374747638
 O,0,3.248669574,-4.3042328844,-4.0479393528
 H,0,2.0931953987,-10.9430309232,-4.7585230984
 H,0,2.0920945188,-9.734844512,-6.0564604869
 H,0,0.5682415796,-10.1927713504,-5.2551130293
 H,0,1.4568528274,-9.2956349969,-3.0560919087
 H,0,2.952390797,-8.830627327,-3.8166826028
 H,0,2.8297350182,-8.9428692197,-1.4529733187
 Recover connectivity data from disk.
                           ----------------------------
                           !    Current Parameters    !
                           ! (Angstroms and Degrees)  !
 --------------------------                            --------------------------
 ! Name  Definition              Value                                          !
 --------------------------------------------------------------------------------
 ! R1    R(1,2)                  1.0987                                         !
 ! R2    R(2,3)                  1.101                                          !
 ! R3    R(2,4)                  1.1002                                         !
 ! R4    R(2,10)                 1.5134                                         !
 ! R5    R(5,13)                 1.1054                                         !
 ! R6    R(6,9)                  0.971                                          !
 ! R7    R(6,20)                 2.0703                                         !
 ! R8    R(7,17)                 1.0982                                         !
 ! R9    R(8,20)                 2.0636                                         !
 ! R10   R(8,128)                0.9849                                         !
 ! R11   R(9,69)                 1.8924                                         !
 ! R12   R(9,121)                1.9007                                         !
 ! R13   R(10,12)                1.108                                          !
 ! R14   R(10,16)                1.0978                                         !
 ! R15   R(10,22)                1.4775                                         !
 ! R16   R(11,13)                1.1041                                         !
 ! R17   R(13,15)                1.1                                            !
 ! R18   R(13,24)                1.5308                                         !
 ! R19   R(14,17)                1.1009                                         !
 ! R20   R(17,18)                1.1033                                         !
 ! R21   R(17,28)                1.532                                          !
 ! R22   R(19,23)                1.102                                          !
 ! R23   R(20,29)                2.3129                                         !
 ! R24   R(20,37)                1.8336                                         !
 ! R25   R(20,44)                2.0541                                         !
 ! R26   R(21,27)                1.1021                                         !
 ! R27   R(22,23)                1.4756                                         !
 ! R28   R(22,35)                1.48                                           !
 ! R29   R(23,30)                1.1034                                         !
 ! R30   R(23,43)                1.4989                                         !
 ! R31   R(24,27)                1.5354                                         !
 ! R32   R(24,29)                1.9178                                         !
 ! R33   R(24,38)                1.5328                                         !
 ! R34   R(25,27)                1.1037                                         !
 ! R35   R(26,31)                1.097                                          !
 ! R36   R(27,46)                1.1008                                         !
 ! R37   R(28,29)                1.9001                                         !
 ! R38   R(28,31)                1.5275                                         !
 ! R39   R(28,40)                1.5294                                         !
 ! R40   R(29,50)                1.8804                                         !
 ! R41   R(31,34)                1.1031                                         !
 ! R42   R(31,48)                1.1009                                         !
 ! R43   R(32,35)                1.0969                                         !
 ! R44   R(33,45)                1.0998                                         !
 ! R45   R(35,45)                1.5216                                         !
 ! R46   R(35,47)                1.0999                                         !
 ! R47   R(36,38)                1.1031                                         !
 ! R48   R(37,63)                1.1648                                         !
 ! R49   R(38,41)                1.0953                                         !
 ! R50   R(38,52)                1.1004                                         !
 ! R51   R(39,40)                1.095                                          !
 ! R52   R(40,42)                1.1026                                         !
 ! R53   R(40,55)                1.1012                                         !
 ! R54   R(43,44)                1.3469                                         !
 ! R55   R(43,54)                1.3899                                         !
 ! R56   R(44,53)                1.3512                                         !
 ! R57   R(45,49)                1.1004                                         !
 ! R58   R(45,51)                1.1004                                         !
 ! R59   R(50,53)                1.4974                                         !
 ! R60   R(50,57)                1.1021                                         !
 ! R61   R(50,58)                1.0982                                         !
 ! R62   R(53,59)                1.3927                                         !
 ! R63   R(54,56)                1.0906                                         !
 ! R64   R(54,60)                1.3933                                         !
 ! R65   R(59,60)                1.3922                                         !
 ! R66   R(59,61)                1.0904                                         !
 ! R67   R(60,62)                1.0914                                         !
 ! R68   R(64,70)                1.5207                                         !
 ! R69   R(64,123)               1.1005                                         !
 ! R70   R(64,124)               1.1011                                         !
 ! R71   R(64,125)               1.1011                                         !
 ! R72   R(65,72)                1.0994                                         !
 ! R73   R(66,69)                0.9778                                         !
 ! R74   R(66,78)                2.0592                                         !
 ! R75   R(67,75)                1.0991                                         !
 ! R76   R(68,78)                2.0787                                         !
 ! R77   R(68,121)               0.9751                                         !
 ! R78   R(70,80)                1.4789                                         !
 ! R79   R(70,126)               1.095                                          !
 ! R80   R(70,127)               1.0963                                         !
 ! R81   R(71,72)                1.1028                                         !
 ! R82   R(72,74)                1.0991                                         !
 ! R83   R(72,82)                1.5302                                         !
 ! R84   R(73,75)                1.1001                                         !
 ! R85   R(75,76)                1.1031                                         !
 ! R86   R(75,86)                1.5317                                         !
 ! R87   R(77,81)                1.1033                                         !
 ! R88   R(78,87)                2.3202                                         !
 ! R89   R(78,95)                1.827                                          !
 ! R90   R(78,102)               2.0564                                         !
 ! R91   R(79,85)                1.1017                                         !
 ! R92   R(80,81)                1.4761                                         !
 ! R93   R(80,93)                1.4783                                         !
 ! R94   R(81,88)                1.1036                                         !
 ! R95   R(81,101)               1.499                                          !
 ! R96   R(82,85)                1.5334                                         !
 ! R97   R(82,87)                1.9091                                         !
 ! R98   R(82,96)                1.5325                                         !
 ! R99   R(83,85)                1.1039                                         !
 ! R100  R(84,89)                1.0962                                         !
 ! R101  R(85,104)               1.1015                                         !
 ! R102  R(86,87)                1.908                                          !
 ! R103  R(86,89)                1.5285                                         !
 ! R104  R(86,98)                1.5298                                         !
 ! R105  R(87,108)               1.8785                                         !
 ! R106  R(89,92)                1.103                                          !
 ! R107  R(89,106)               1.1005                                         !
 ! R108  R(90,93)                1.1002                                         !
 ! R109  R(91,103)               1.0985                                         !
 ! R110  R(93,103)               1.5174                                         !
 ! R111  R(93,105)               1.1075                                         !
 ! R112  R(94,96)                1.1031                                         !
 ! R113  R(95,122)               1.167                                          !
 ! R114  R(96,99)                1.0949                                         !
 ! R115  R(96,110)               1.1004                                         !
 ! R116  R(97,98)                1.0941                                         !
 ! R117  R(98,100)               1.1028                                         !
 ! R118  R(98,113)               1.1012                                         !
 ! R119  R(101,102)              1.3452                                         !
 ! R120  R(101,112)              1.3908                                         !
 ! R121  R(102,111)              1.3501                                         !
 ! R122  R(103,107)              1.0994                                         !
 ! R123  R(103,109)              1.0994                                         !
 ! R124  R(108,111)              1.4983                                         !
 ! R125  R(108,115)              1.1024                                         !
 ! R126  R(108,116)              1.0982                                         !
 ! R127  R(111,117)              1.3928                                         !
 ! R128  R(112,114)              1.0905                                         !
 ! R129  R(112,118)              1.3923                                         !
 ! R130  R(117,118)              1.3919                                         !
 ! R131  R(117,119)              1.0904                                         !
 ! R132  R(118,120)              1.0915                                         !
 ! R133  R(121,128)              1.8175                                         !
 ! A1    A(1,2,3)              107.8676                                         !
 ! A2    A(1,2,4)              107.8521                                         !
 ! A3    A(1,2,10)             108.679                                          !
 ! A4    A(3,2,4)              109.3707                                         !
 ! A5    A(3,2,10)             113.0671                                         !
 ! A6    A(4,2,10)             109.8523                                         !
 ! A7    A(9,6,20)             102.2713                                         !
 ! A8    A(20,8,128)           104.9272                                         !
 ! A9    A(6,9,69)              78.2415                                         !
 ! A10   A(6,9,121)            145.9328                                         !
 ! A11   A(69,9,121)            80.1417                                         !
 ! A12   A(2,10,12)            110.7308                                         !
 ! A13   A(2,10,16)            109.6493                                         !
 ! A14   A(2,10,22)            113.2109                                         !
 ! A15   A(12,10,16)           107.3229                                         !
 ! A16   A(12,10,22)           109.3694                                         !
 ! A17   A(16,10,22)           106.3028                                         !
 ! A18   A(5,13,11)            108.323                                          !
 ! A19   A(5,13,15)            108.1103                                         !
 ! A20   A(5,13,24)            113.0256                                         !
 ! A21   A(11,13,15)           106.8421                                         !
 ! A22   A(11,13,24)           108.2483                                         !
 ! A23   A(15,13,24)           112.0513                                         !
 ! A24   A(7,17,14)            107.0281                                         !
 ! A25   A(7,17,18)            108.0852                                         !
 ! A26   A(7,17,28)            112.1863                                         !
 ! A27   A(14,17,18)           109.4321                                         !
 ! A28   A(14,17,28)           110.9528                                         !
 ! A29   A(18,17,28)           109.0771                                         !
 ! A30   A(6,20,8)              84.1509                                         !
 ! A31   A(6,20,29)            102.6534                                         !
 ! A32   A(6,20,37)             89.3911                                         !
 ! A33   A(8,20,29)             96.0666                                         !
 ! A34   A(8,20,44)             91.1119                                         !
 ! A35   A(29,20,37)            92.8117                                         !
 ! A36   A(29,20,44)            80.5659                                         !
 ! A37   A(37,20,44)            94.9229                                         !
 ! A38   A(10,22,23)           108.7521                                         !
 ! A39   A(10,22,35)           112.4159                                         !
 ! A40   A(23,22,35)           110.861                                          !
 ! A41   A(19,23,22)           105.5793                                         !
 ! A42   A(19,23,30)           109.5667                                         !
 ! A43   A(19,23,43)           107.5564                                         !
 ! A44   A(22,23,30)           112.1117                                         !
 ! A45   A(22,23,43)           110.9136                                         !
 ! A46   A(30,23,43)           110.871                                          !
 ! A47   A(13,24,27)           108.883                                          !
 ! A48   A(13,24,29)           109.4766                                         !
 ! A49   A(13,24,38)           109.988                                          !
 ! A50   A(27,24,29)           108.4342                                         !
 ! A51   A(27,24,38)           107.0258                                         !
 ! A52   A(29,24,38)           112.9238                                         !
 ! A53   A(21,27,24)           111.5498                                         !
 ! A54   A(21,27,25)           109.8393                                         !
 ! A55   A(21,27,46)           108.9468                                         !
 ! A56   A(24,27,25)           107.6669                                         !
 ! A57   A(24,27,46)           111.7849                                         !
 ! A58   A(25,27,46)           106.933                                          !
 ! A59   A(17,28,29)           104.768                                          !
 ! A60   A(17,28,31)           110.7275                                         !
 ! A61   A(17,28,40)           108.571                                          !
 ! A62   A(29,28,31)           115.6093                                         !
 ! A63   A(29,28,40)           109.4357                                         !
 ! A64   A(31,28,40)           107.5582                                         !
 ! A65   A(20,29,24)           119.0809                                         !
 ! A66   A(20,29,28)           119.6729                                         !
 ! A67   A(20,29,50)            95.3818                                         !
 ! A68   A(24,29,28)           110.1585                                         !
 ! A69   A(24,29,50)           101.6558                                         !
 ! A70   A(28,29,50)           106.9907                                         !
 ! A71   A(26,31,28)           112.8293                                         !
 ! A72   A(26,31,34)           107.1536                                         !
 ! A73   A(26,31,48)           108.7668                                         !
 ! A74   A(28,31,34)           108.2017                                         !
 ! A75   A(28,31,48)           112.3556                                         !
 ! A76   A(34,31,48)           107.2532                                         !
 ! A77   A(22,35,32)           107.086                                          !
 ! A78   A(22,35,45)           116.4687                                         !
 ! A79   A(22,35,47)           107.0275                                         !
 ! A80   A(32,35,45)           109.9471                                         !
 ! A81   A(32,35,47)           106.0888                                         !
 ! A82   A(45,35,47)           109.6897                                         !
 ! A83   A(24,38,36)           107.5485                                         !
 ! A84   A(24,38,41)           114.1715                                         !
 ! A85   A(24,38,52)           112.2765                                         !
 ! A86   A(36,38,41)           107.2741                                         !
 ! A87   A(36,38,52)           106.5735                                         !
 ! A88   A(41,38,52)           108.6012                                         !
 ! A89   A(28,40,39)           112.7075                                         !
 ! A90   A(28,40,42)           107.9662                                         !
 ! A91   A(28,40,55)           112.6724                                         !
 ! A92   A(39,40,42)           107.1881                                         !
 ! A93   A(39,40,55)           108.9793                                         !
 ! A94   A(42,40,55)           107.0198                                         !
 ! A95   A(23,43,44)           114.2995                                         !
 ! A96   A(23,43,54)           124.7972                                         !
 ! A97   A(44,43,54)           120.8854                                         !
 ! A98   A(20,44,43)           116.4627                                         !
 ! A99   A(20,44,53)           122.4367                                         !
 ! A100  A(43,44,53)           121.0851                                         !
 ! A101  A(33,45,35)           112.3955                                         !
 ! A102  A(33,45,49)           108.0982                                         !
 ! A103  A(33,45,51)           107.4428                                         !
 ! A104  A(35,45,49)           112.7598                                         !
 ! A105  A(35,45,51)           108.7628                                         !
 ! A106  A(49,45,51)           107.1193                                         !
 ! A107  A(29,50,53)           107.8848                                         !
 ! A108  A(29,50,57)           105.0426                                         !
 ! A109  A(29,50,58)           115.2031                                         !
 ! A110  A(53,50,57)           108.672                                          !
 ! A111  A(53,50,58)           111.7088                                         !
 ! A112  A(57,50,58)           107.9719                                         !
 ! A113  A(44,53,50)           115.2388                                         !
 ! A114  A(44,53,59)           120.3373                                         !
 ! A115  A(50,53,59)           124.4167                                         !
 ! A116  A(43,54,56)           119.7647                                         !
 ! A117  A(43,54,60)           118.969                                          !
 ! A118  A(56,54,60)           121.2663                                         !
 ! A119  A(53,59,60)           119.2957                                         !
 ! A120  A(53,59,61)           119.6192                                         !
 ! A121  A(60,59,61)           121.0846                                         !
 ! A122  A(54,60,59)           119.426                                          !
 ! A123  A(54,60,62)           120.3372                                         !
 ! A124  A(59,60,62)           120.2366                                         !
 ! A125  A(70,64,123)          108.1358                                         !
 ! A126  A(70,64,124)          113.4181                                         !
 ! A127  A(70,64,125)          112.6107                                         !
 ! A128  A(123,64,124)         107.3013                                         !
 ! A129  A(123,64,125)         107.0663                                         !
 ! A130  A(124,64,125)         107.9946                                         !
 ! A131  A(69,66,78)           107.8594                                         !
 ! A132  A(78,68,121)          104.5164                                         !
 ! A133  A(9,69,66)            130.6092                                         !
 ! A134  A(64,70,80)           116.3641                                         !
 ! A135  A(64,70,126)          110.0216                                         !
 ! A136  A(64,70,127)          110.8378                                         !
 ! A137  A(80,70,126)          106.9761                                         !
 ! A138  A(80,70,127)          106.7566                                         !
 ! A139  A(126,70,127)         105.2273                                         !
 ! A140  A(65,72,71)           107.9339                                         !
 ! A141  A(65,72,74)           107.4504                                         !
 ! A142  A(65,72,82)           113.2505                                         !
 ! A143  A(71,72,74)           107.0132                                         !
 ! A144  A(71,72,82)           108.68                                           !
 ! A145  A(74,72,82)           112.2497                                         !
 ! A146  A(67,75,73)           106.7743                                         !
 ! A147  A(67,75,76)           108.2556                                         !
 ! A148  A(67,75,86)           112.5931                                         !
 ! A149  A(73,75,76)           109.1627                                         !
 ! A150  A(73,75,86)           110.7079                                         !
 ! A151  A(76,75,86)           109.2528                                         !
 ! A152  A(66,78,68)            85.6437                                         !
 ! A153  A(66,78,87)           105.8275                                         !
 ! A154  A(66,78,95)            92.0455                                         !
 ! A155  A(68,78,87)            95.7688                                         !
 ! A156  A(68,78,102)           89.4573                                         !
 ! A157  A(87,78,95)            90.2643                                         !
 ! A158  A(87,78,102)           81.5238                                         !
 ! A159  A(95,78,102)           92.1358                                         !
 ! A160  A(70,80,81)           110.0427                                         !
 ! A161  A(70,80,93)           111.744                                          !
 ! A162  A(81,80,93)           109.8447                                         !
 ! A163  A(77,81,80)           105.3347                                         !
 ! A164  A(77,81,88)           110.7056                                         !
 ! A165  A(77,81,101)          106.0189                                         !
 ! A166  A(80,81,88)           111.8568                                         !
 ! A167  A(80,81,101)          112.5485                                         !
 ! A168  A(88,81,101)          110.1198                                         !
 ! A169  A(72,82,85)           109.3234                                         !
 ! A170  A(72,82,87)           109.1482                                         !
 ! A171  A(72,82,96)           109.9302                                         !
 ! A172  A(85,82,87)           107.498                                          !
 ! A173  A(85,82,96)           107.1486                                         !
 ! A174  A(87,82,96)           113.6804                                         !
 ! A175  A(79,85,82)           111.3002                                         !
 ! A176  A(79,85,83)           110.1341                                         !
 ! A177  A(79,85,104)          109.0896                                         !
 ! A178  A(82,85,83)           107.752                                          !
 ! A179  A(82,85,104)          111.6554                                         !
 ! A180  A(83,85,104)          106.8018                                         !
 ! A181  A(75,86,87)           104.5262                                         !
 ! A182  A(75,86,89)           110.456                                          !
 ! A183  A(75,86,98)           108.82                                           !
 ! A184  A(87,86,89)           115.7411                                         !
 ! A185  A(87,86,98)           110.4876                                         !
 ! A186  A(89,86,98)           106.6959                                         !
 ! A187  A(78,87,82)           119.5516                                         !
 ! A188  A(78,87,86)           119.5185                                         !
 ! A189  A(78,87,108)           95.8579                                         !
 ! A190  A(82,87,86)           109.6631                                         !
 ! A191  A(82,87,108)          102.0611                                         !
 ! A192  A(86,87,108)          106.4118                                         !
 ! A193  A(84,89,86)           113.2766                                         !
 ! A194  A(84,89,92)           107.1196                                         !
 ! A195  A(84,89,106)          108.8051                                         !
 ! A196  A(86,89,92)           107.9588                                         !
 ! A197  A(86,89,106)          112.2237                                         !
 ! A198  A(92,89,106)          107.1494                                         !
 ! A199  A(80,93,90)           107.0475                                         !
 ! A200  A(80,93,103)          113.6179                                         !
 ! A201  A(80,93,105)          109.3128                                         !
 ! A202  A(90,93,103)          110.3351                                         !
 ! A203  A(90,93,105)          106.497                                          !
 ! A204  A(103,93,105)         109.7574                                         !
 ! A205  A(82,96,94)           107.5286                                         !
 ! A206  A(82,96,99)           114.3821                                         !
 ! A207  A(82,96,110)          112.1179                                         !
 ! A208  A(94,96,99)           107.2796                                         !
 ! A209  A(94,96,110)          106.5115                                         !
 ! A210  A(99,96,110)          108.6138                                         !
 ! A211  A(86,98,97)           113.3137                                         !
 ! A212  A(86,98,100)          107.8329                                         !
 ! A213  A(86,98,113)          112.3842                                         !
 ! A214  A(97,98,100)          107.1344                                         !
 ! A215  A(97,98,113)          108.9344                                         !
 ! A216  A(100,98,113)         106.9046                                         !
 ! A217  A(81,101,102)         114.9954                                         !
 ! A218  A(81,101,112)         124.0935                                         !
 ! A219  A(102,101,112)        120.8204                                         !
 ! A220  A(78,102,101)         116.1846                                         !
 ! A221  A(78,102,111)         122.6291                                         !
 ! A222  A(101,102,111)        121.18                                           !
 ! A223  A(91,103,93)          111.3148                                         !
 ! A224  A(91,103,107)         107.9565                                         !
 ! A225  A(91,103,109)         108.1454                                         !
 ! A226  A(93,103,107)         111.9059                                         !
 ! A227  A(93,103,109)         109.5062                                         !
 ! A228  A(107,103,109)        107.877                                          !
 ! A229  A(87,108,111)         109.3945                                         !
 ! A230  A(87,108,115)         104.9835                                         !
 ! A231  A(87,108,116)         114.8559                                         !
 ! A232  A(111,108,115)        107.941                                          !
 ! A233  A(111,108,116)        111.652                                          !
 ! A234  A(115,108,116)        107.5729                                         !
 ! A235  A(102,111,108)        115.6392                                         !
 ! A236  A(102,111,117)        120.3248                                         !
 ! A237  A(108,111,117)        124.0267                                         !
 ! A238  A(101,112,114)        119.7753                                         !
 ! A239  A(101,112,118)        118.9546                                         !
 ! A240  A(114,112,118)        121.269                                          !
 ! A241  A(111,117,118)        119.2368                                         !
 ! A242  A(111,117,119)        119.6613                                         !
 ! A243  A(118,117,119)        121.1002                                         !
 ! A244  A(112,118,117)        119.4636                                         !
 ! A245  A(112,118,120)        120.3198                                         !
 ! A246  A(117,118,120)        120.2147                                         !
 ! A247  A(9,121,68)           100.334                                          !
 ! A248  A(9,121,128)           77.4879                                         !
 ! A249  A(68,121,128)         146.9446                                         !
 ! A250  A(8,128,121)           83.2131                                         !
 ! A251  L(6,20,44,8,-1)       175.2628                                         !
 ! A252  L(8,20,37,6,-1)       173.542                                          !
 ! A253  L(20,37,63,1,-1)      174.4384                                         !
 ! A254  L(66,78,102,68,-1)    175.101                                          !
 ! A255  L(68,78,95,66,-1)     177.6892                                         !
 ! A256  L(78,95,122,7,-1)     181.6855                                         !
 ! A257  L(6,20,44,8,-2)       182.785                                          !
 ! A258  L(8,20,37,6,-2)       172.3281                                         !
 ! A259  L(20,37,63,1,-2)      179.3164                                         !
 ! A260  L(66,78,102,68,-2)    186.924                                          !
 ! A261  L(68,78,95,66,-2)     174.3735                                         !
 ! A262  L(78,95,122,7,-2)     176.2658                                         !
 ! D1    D(1,2,10,12)          -68.9644                                         !
 ! D2    D(1,2,10,16)           49.2773                                         !
 ! D3    D(1,2,10,22)          167.7953                                         !
 ! D4    D(3,2,10,12)           50.7708                                         !
 ! D5    D(3,2,10,16)          169.0126                                         !
 ! D6    D(3,2,10,22)          -72.4695                                         !
 ! D7    D(4,2,10,12)          173.2531                                         !
 ! D8    D(4,2,10,16)          -68.5052                                         !
 ! D9    D(4,2,10,22)           50.0128                                         !
 ! D10   D(20,6,9,69)          -99.9315                                         !
 ! D11   D(20,6,9,121)         -48.249                                          !
 ! D12   D(9,6,20,8)            32.7741                                         !
 ! D13   D(9,6,20,29)          127.7009                                         !
 ! D14   D(9,6,20,37)         -139.554                                          !
 ! D15   D(9,6,44,43)          -25.5123                                         !
 ! D16   D(9,6,44,53)          151.5331                                         !
 ! D17   D(128,8,20,6)          45.9587                                         !
 ! D18   D(128,8,20,29)        -56.196                                          !
 ! D19   D(128,8,20,44)       -136.8262                                         !
 ! D20   D(20,8,128,121)      -109.004                                          !
 ! D21   D(6,9,69,66)          156.4907                                         !
 ! D22   D(121,9,69,66)          2.9835                                         !
 ! D23   D(6,9,121,68)        -149.3234                                         !
 ! D24   D(6,9,121,128)         -2.9954                                         !
 ! D25   D(69,9,121,68)        -98.0962                                         !
 ! D26   D(69,9,121,128)        48.2318                                         !
 ! D27   D(2,10,22,23)         175.8317                                         !
 ! D28   D(2,10,22,35)          52.681                                          !
 ! D29   D(12,10,22,23)         51.844                                          !
 ! D30   D(12,10,22,35)        -71.3067                                         !
 ! D31   D(16,10,22,23)        -63.7291                                         !
 ! D32   D(16,10,22,35)        173.1202                                         !
 ! D33   D(5,13,24,27)          67.6829                                         !
 ! D34   D(5,13,24,29)         -50.706                                          !
 ! D35   D(5,13,24,38)        -175.3354                                         !
 ! D36   D(11,13,24,27)        -52.3043                                         !
 ! D37   D(11,13,24,29)       -170.6932                                         !
 ! D38   D(11,13,24,38)         64.6773                                         !
 ! D39   D(15,13,24,27)       -169.8667                                         !
 ! D40   D(15,13,24,29)         71.7444                                         !
 ! D41   D(15,13,24,38)        -52.8851                                         !
 ! D42   D(7,17,28,29)         -65.2647                                         !
 ! D43   D(7,17,28,31)          60.0235                                         !
 ! D44   D(7,17,28,40)         177.8898                                         !
 ! D45   D(14,17,28,29)         54.3925                                         !
 ! D46   D(14,17,28,31)        179.6807                                         !
 ! D47   D(14,17,28,40)        -62.453                                          !
 ! D48   D(18,17,28,29)        175.0147                                         !
 ! D49   D(18,17,28,31)        -59.6971                                         !
 ! D50   D(18,17,28,40)         58.1692                                         !
 ! D51   D(6,20,29,24)        -100.6949                                         !
 ! D52   D(6,20,29,28)          39.7239                                         !
 ! D53   D(6,20,29,50)         152.7707                                         !
 ! D54   D(8,20,29,24)         -15.3509                                         !
 ! D55   D(8,20,29,28)         125.0679                                         !
 ! D56   D(8,20,29,50)        -121.8853                                         !
 ! D57   D(37,20,29,24)        169.2982                                         !
 ! D58   D(37,20,29,28)        -50.283                                          !
 ! D59   D(37,20,29,50)         62.7638                                         !
 ! D60   D(44,20,29,24)         74.7708                                         !
 ! D61   D(44,20,29,28)       -144.8104                                         !
 ! D62   D(44,20,29,50)        -31.7636                                         !
 ! D63   D(8,20,44,43)         -58.7082                                         !
 ! D64   D(8,20,44,53)         119.8732                                         !
 ! D65   D(29,20,44,43)       -154.6736                                         !
 ! D66   D(29,20,44,53)         23.9077                                         !
 ! D67   D(37,20,44,43)        113.2863                                         !
 ! D68   D(37,20,44,53)        -68.1324                                         !
 ! D69   D(10,22,23,19)         53.2065                                         !
 ! D70   D(10,22,23,30)        -66.0395                                         !
 ! D71   D(10,22,23,43)        169.424                                          !
 ! D72   D(35,22,23,19)        177.2851                                         !
 ! D73   D(35,22,23,30)         58.0391                                         !
 ! D74   D(35,22,23,43)        -66.4973                                         !
 ! D75   D(10,22,35,32)        -65.6878                                         !
 ! D76   D(10,22,35,45)         57.7985                                         !
 ! D77   D(10,22,35,47)       -179.1003                                         !
 ! D78   D(23,22,35,32)        172.3513                                         !
 ! D79   D(23,22,35,45)        -64.1624                                         !
 ! D80   D(23,22,35,47)         58.9388                                         !
 ! D81   D(19,23,43,44)         76.3772                                         !
 ! D82   D(19,23,43,54)       -102.0845                                         !
 ! D83   D(22,23,43,44)        -38.6129                                         !
 ! D84   D(22,23,43,54)        142.9254                                         !
 ! D85   D(30,23,43,44)       -163.8499                                         !
 ! D86   D(30,23,43,54)         17.6884                                         !
 ! D87   D(13,24,27,21)        -67.1174                                         !
 ! D88   D(13,24,27,25)         53.462                                          !
 ! D89   D(13,24,27,46)        170.6218                                         !
 ! D90   D(29,24,27,21)         51.925                                          !
 ! D91   D(29,24,27,25)        172.5045                                         !
 ! D92   D(29,24,27,46)        -70.3358                                         !
 ! D93   D(38,24,27,21)        174.0294                                         !
 ! D94   D(38,24,27,25)        -65.3912                                         !
 ! D95   D(38,24,27,46)         51.7686                                         !
 ! D96   D(13,24,29,20)         87.8715                                         !
 ! D97   D(13,24,29,28)        -55.9898                                         !
 ! D98   D(13,24,29,50)       -169.1664                                         !
 ! D99   D(27,24,29,20)        -30.7962                                         !
 ! D100  D(27,24,29,28)       -174.6575                                         !
 ! D101  D(27,24,29,50)         72.1659                                         !
 ! D102  D(38,24,29,20)       -149.2251                                         !
 ! D103  D(38,24,29,28)         66.9136                                         !
 ! D104  D(38,24,29,50)        -46.263                                          !
 ! D105  D(13,24,38,36)        -57.634                                          !
 ! D106  D(13,24,38,41)         61.2669                                         !
 ! D107  D(13,24,38,52)       -174.5601                                         !
 ! D108  D(27,24,38,36)         60.5009                                         !
 ! D109  D(27,24,38,41)        179.4018                                         !
 ! D110  D(27,24,38,52)        -56.4252                                         !
 ! D111  D(29,24,38,36)        179.7476                                         !
 ! D112  D(29,24,38,41)        -61.3515                                         !
 ! D113  D(29,24,38,52)         62.8215                                         !
 ! D114  D(17,28,29,20)        -55.0169                                         !
 ! D115  D(17,28,29,24)         88.5999                                         !
 ! D116  D(17,28,29,50)       -161.6933                                         !
 ! D117  D(31,28,29,20)       -177.1741                                         !
 ! D118  D(31,28,29,24)        -33.5573                                         !
 ! D119  D(31,28,29,50)         76.1495                                         !
 ! D120  D(40,28,29,20)         61.2326                                         !
 ! D121  D(40,28,29,24)       -155.1506                                         !
 ! D122  D(40,28,29,50)        -45.4438                                         !
 ! D123  D(17,28,31,26)        -55.9009                                         !
 ! D124  D(17,28,31,34)         62.4764                                         !
 ! D125  D(17,28,31,48)       -179.3061                                         !
 ! D126  D(29,28,31,26)         63.0213                                         !
 ! D127  D(29,28,31,34)       -178.6014                                         !
 ! D128  D(29,28,31,48)        -60.3839                                         !
 ! D129  D(40,28,31,26)       -174.3839                                         !
 ! D130  D(40,28,31,34)        -56.0066                                         !
 ! D131  D(40,28,31,48)         62.2109                                         !
 ! D132  D(17,28,40,39)         56.9345                                         !
 ! D133  D(17,28,40,42)        -61.2593                                         !
 ! D134  D(17,28,40,55)       -179.2246                                         !
 ! D135  D(29,28,40,39)        -56.8758                                         !
 ! D136  D(29,28,40,42)       -175.0696                                         !
 ! D137  D(29,28,40,55)         66.9652                                         !
 ! D138  D(31,28,40,39)        176.7969                                         !
 ! D139  D(31,28,40,42)         58.603                                          !
 ! D140  D(31,28,40,55)        -59.3622                                         !
 ! D141  D(20,29,50,53)         42.357                                          !
 ! D142  D(20,29,50,57)        -73.4325                                         !
 ! D143  D(20,29,50,58)        167.9086                                         !
 ! D144  D(24,29,50,53)        -78.835                                          !
 ! D145  D(24,29,50,57)        165.3755                                         !
 ! D146  D(24,29,50,58)         46.7166                                         !
 ! D147  D(28,29,50,53)        165.6361                                         !
 ! D148  D(28,29,50,57)         49.8467                                         !
 ! D149  D(28,29,50,58)        -68.8122                                         !
 ! D150  D(22,35,45,33)        -60.6073                                         !
 ! D151  D(22,35,45,49)         61.8887                                         !
 ! D152  D(22,35,45,51)       -179.4487                                         !
 ! D153  D(32,35,45,33)         61.3885                                         !
 ! D154  D(32,35,45,49)       -176.1155                                         !
 ! D155  D(32,35,45,51)        -57.4529                                         !
 ! D156  D(47,35,45,33)        177.6835                                         !
 ! D157  D(47,35,45,49)        -59.8205                                         !
 ! D158  D(47,35,45,51)         58.8421                                         !
 ! D159  D(23,43,44,20)          0.3965                                         !
 ! D160  D(23,43,44,53)       -178.2053                                         !
 ! D161  D(54,43,44,20)        178.9246                                         !
 ! D162  D(54,43,44,53)          0.3227                                         !
 ! D163  D(23,43,54,56)         -2.067                                          !
 ! D164  D(23,43,54,60)        177.8952                                         !
 ! D165  D(44,43,54,56)        179.5667                                         !
 ! D166  D(44,43,54,60)         -0.471                                          !
 ! D167  D(20,44,53,50)          0.487                                          !
 ! D168  D(20,44,53,59)       -178.5776                                         !
 ! D169  D(43,44,53,50)        179.004                                          !
 ! D170  D(43,44,53,59)         -0.0606                                         !
 ! D171  D(29,50,53,44)        -31.9189                                         !
 ! D172  D(29,50,53,59)        147.1024                                         !
 ! D173  D(57,50,53,44)         81.4666                                         !
 ! D174  D(57,50,53,59)        -99.512                                          !
 ! D175  D(58,50,53,44)       -159.5145                                         !
 ! D176  D(58,50,53,59)         19.5069                                         !
 ! D177  D(44,53,59,60)         -0.0445                                         !
 ! D178  D(44,53,59,61)        179.6773                                         !
 ! D179  D(50,53,59,60)       -179.0188                                         !
 ! D180  D(50,53,59,61)          0.7029                                         !
 ! D181  D(43,54,60,59)          0.3607                                         !
 ! D182  D(43,54,60,62)       -179.813                                          !
 ! D183  D(56,54,60,59)       -179.6776                                         !
 ! D184  D(56,54,60,62)          0.1487                                         !
 ! D185  D(53,59,60,54)         -0.1102                                         !
 ! D186  D(53,59,60,62)       -179.9367                                         !
 ! D187  D(61,59,60,54)       -179.8278                                         !
 ! D188  D(61,59,60,62)          0.3457                                         !
 ! D189  D(123,64,70,80)      -179.7079                                         !
 ! D190  D(123,64,70,126)      -57.8759                                         !
 ! D191  D(123,64,70,127)       58.0879                                         !
 ! D192  D(124,64,70,80)        61.4173                                         !
 ! D193  D(124,64,70,126)     -176.7506                                         !
 ! D194  D(124,64,70,127)      -60.7868                                         !
 ! D195  D(125,64,70,80)       -61.6122                                         !
 ! D196  D(125,64,70,126)       60.2199                                         !
 ! D197  D(125,64,70,127)      176.1837                                         !
 ! D198  D(78,66,69,9)          56.9942                                         !
 ! D199  D(69,66,78,68)        -58.0978                                         !
 ! D200  D(69,66,78,87)         36.6737                                         !
 ! D201  D(69,66,78,95)        127.5287                                         !
 ! D202  D(69,66,102,101)     -120.9686                                         !
 ! D203  D(69,66,102,111)       59.1603                                         !
 ! D204  D(121,68,78,66)       -19.0149                                         !
 ! D205  D(121,68,78,87)      -124.5144                                         !
 ! D206  D(121,68,78,102)      154.0611                                         !
 ! D207  D(78,68,121,9)         89.9137                                         !
 ! D208  D(78,68,121,128)        7.0105                                         !
 ! D209  D(64,70,80,81)         64.2443                                         !
 ! D210  D(64,70,80,93)        -58.0683                                         !
 ! D211  D(126,70,80,81)       -59.1795                                         !
 ! D212  D(126,70,80,93)       178.5078                                         !
 ! D213  D(127,70,80,81)      -171.4331                                         !
 ! D214  D(127,70,80,93)        66.2542                                         !
 ! D215  D(65,72,82,85)         69.6779                                         !
 ! D216  D(65,72,82,87)        -47.6471                                         !
 ! D217  D(65,72,82,96)       -172.9671                                         !
 ! D218  D(71,72,82,85)        -50.258                                          !
 ! D219  D(71,72,82,87)       -167.5831                                         !
 ! D220  D(71,72,82,96)         67.097                                          !
 ! D221  D(74,72,82,85)       -168.4238                                         !
 ! D222  D(74,72,82,87)         74.2512                                         !
 ! D223  D(74,72,82,96)        -51.0687                                         !
 ! D224  D(67,75,86,87)        -60.6025                                         !
 ! D225  D(67,75,86,89)         64.5315                                         !
 ! D226  D(67,75,86,98)       -178.6558                                         !
 ! D227  D(73,75,86,87)         58.8358                                         !
 ! D228  D(73,75,86,89)       -176.0302                                         !
 ! D229  D(73,75,86,98)        -59.2175                                         !
 ! D230  D(76,75,86,87)        179.0838                                         !
 ! D231  D(76,75,86,89)        -55.7821                                         !
 ! D232  D(76,75,86,98)         61.0306                                         !
 ! D233  D(66,78,87,82)        -96.599                                          !
 ! D234  D(66,78,87,86)         43.3542                                         !
 ! D235  D(66,78,87,108)       155.9655                                         !
 ! D236  D(68,78,87,82)         -9.5059                                         !
 ! D237  D(68,78,87,86)        130.4473                                         !
 ! D238  D(68,78,87,108)      -116.9413                                         !
 ! D239  D(95,78,87,82)        171.1999                                         !
 ! D240  D(95,78,87,86)        -48.8469                                         !
 ! D241  D(95,78,87,108)        63.7645                                         !
 ! D242  D(102,78,87,82)        79.0799                                         !
 ! D243  D(102,78,87,86)      -140.967                                          !
 ! D244  D(102,78,87,108)      -28.3556                                         !
 ! D245  D(68,78,102,101)      -64.277                                          !
 ! D246  D(68,78,102,111)      116.6236                                         !
 ! D247  D(87,78,102,101)     -160.1913                                         !
 ! D248  D(87,78,102,111)       20.7093                                         !
 ! D249  D(95,78,102,101)      109.8598                                         !
 ! D250  D(95,78,102,111)      -69.2396                                         !
 ! D251  D(70,80,81,77)         48.5106                                         !
 ! D252  D(70,80,81,88)        -71.8214                                         !
 ! D253  D(70,80,81,101)       163.5779                                         !
 ! D254  D(93,80,81,77)        171.9395                                         !
 ! D255  D(93,80,81,88)         51.6075                                         !
 ! D256  D(93,80,81,101)       -72.9932                                         !
 ! D257  D(70,80,93,90)       -172.3359                                         !
 ! D258  D(70,80,93,103)       -50.277                                          !
 ! D259  D(70,80,93,105)        72.6915                                         !
 ! D260  D(81,80,93,90)         65.2381                                         !
 ! D261  D(81,80,93,103)      -172.703                                          !
 ! D262  D(81,80,93,105)       -49.7345                                         !
 ! D263  D(77,81,101,102)       77.1056                                         !
 ! D264  D(77,81,101,112)      -99.4472                                         !
 ! D265  D(80,81,101,102)      -37.5474                                         !
 ! D266  D(80,81,101,112)      145.8998                                         !
 ! D267  D(88,81,101,102)     -163.0971                                         !
 ! D268  D(88,81,101,112)       20.3501                                         !
 ! D269  D(72,82,85,79)        -61.9846                                         !
 ! D270  D(72,82,85,83)         58.8623                                         !
 ! D271  D(72,82,85,104)       175.8419                                         !
 ! D272  D(87,82,85,79)         56.3751                                         !
 ! D273  D(87,82,85,83)        177.222                                          !
 ! D274  D(87,82,85,104)       -65.7984                                         !
 ! D275  D(96,82,85,79)        178.9222                                         !
 ! D276  D(96,82,85,83)        -60.2309                                         !
 ! D277  D(96,82,85,104)        56.7487                                         !
 ! D278  D(72,82,87,78)         86.3982                                         !
 ! D279  D(72,82,87,86)        -57.12                                           !
 ! D280  D(72,82,87,108)      -169.6494                                         !
 ! D281  D(85,82,87,78)        -32.0745                                         !
 ! D282  D(85,82,87,86)       -175.5927                                         !
 ! D283  D(85,82,87,108)        71.8779                                         !
 ! D284  D(96,82,87,78)       -150.4887                                         !
 ! D285  D(96,82,87,86)         65.9931                                         !
 ! D286  D(96,82,87,108)       -46.5363                                         !
 ! D287  D(72,82,96,94)        -57.61                                           !
 ! D288  D(72,82,96,99)         61.4127                                         !
 ! D289  D(72,82,96,110)      -174.3594                                         !
 ! D290  D(85,82,96,94)         61.0911                                         !
 ! D291  D(85,82,96,99)       -179.8862                                         !
 ! D292  D(85,82,96,110)       -55.6583                                         !
 ! D293  D(87,82,96,94)        179.7059                                         !
 ! D294  D(87,82,96,99)        -61.2714                                         !
 ! D295  D(87,82,96,110)        62.9565                                         !
 ! D296  D(75,86,87,78)        -50.8608                                         !
 ! D297  D(75,86,87,82)         92.6713                                         !
 ! D298  D(75,86,87,108)      -157.661                                          !
 ! D299  D(89,86,87,78)       -172.5783                                         !
 ! D300  D(89,86,87,82)        -29.0462                                         !
 ! D301  D(89,86,87,108)        80.6215                                         !
 ! D302  D(98,86,87,78)         66.0473                                         !
 ! D303  D(98,86,87,82)       -150.4206                                         !
 ! D304  D(98,86,87,108)       -40.7529                                         !
 ! D305  D(75,86,89,84)        -57.1702                                         !
 ! D306  D(75,86,89,92)         61.2735                                         !
 ! D307  D(75,86,89,106)       179.1306                                         !
 ! D308  D(87,86,89,84)         61.3223                                         !
 ! D309  D(87,86,89,92)        179.7659                                         !
 ! D310  D(87,86,89,106)       -62.377                                          !
 ! D311  D(98,86,89,84)       -175.2915                                         !
 ! D312  D(98,86,89,92)        -56.8478                                         !
 ! D313  D(98,86,89,106)        61.0093                                         !
 ! D314  D(75,86,98,97)         58.7481                                         !
 ! D315  D(75,86,98,100)       -59.6525                                         !
 ! D316  D(75,86,98,113)      -177.2228                                         !
 ! D317  D(87,86,98,97)        -55.4708                                         !
 ! D318  D(87,86,98,100)      -173.8714                                         !
 ! D319  D(87,86,98,113)        68.5583                                         !
 ! D320  D(89,86,98,97)        177.9378                                         !
 ! D321  D(89,86,98,100)        59.5372                                         !
 ! D322  D(89,86,98,113)       -58.0331                                         !
 ! D323  D(78,87,108,111)       38.4938                                         !
 ! D324  D(78,87,108,115)      -77.1189                                         !
 ! D325  D(78,87,108,116)      164.9483                                         !
 ! D326  D(82,87,108,111)      -83.4381                                         !
 ! D327  D(82,87,108,115)      160.9493                                         !
 ! D328  D(82,87,108,116)       43.0164                                         !
 ! D329  D(86,87,108,111)      161.6242                                         !
 ! D330  D(86,87,108,115)       46.0115                                         !
 ! D331  D(86,87,108,116)      -71.9213                                         !
 ! D332  D(80,93,103,91)       -44.5009                                         !
 ! D333  D(80,93,103,107)       76.4019                                         !
 ! D334  D(80,93,103,109)     -164.0302                                         !
 ! D335  D(90,93,103,91)        75.7167                                         !
 ! D336  D(90,93,103,107)     -163.3806                                         !
 ! D337  D(90,93,103,109)      -43.8126                                         !
 ! D338  D(105,93,103,91)     -167.225                                          !
 ! D339  D(105,93,103,107)     -46.3222                                         !
 ! D340  D(105,93,103,109)      73.2457                                         !
 ! D341  D(81,101,102,78)        3.7138                                         !
 ! D342  D(81,101,102,111)    -177.1728                                         !
 ! D343  D(112,101,102,78)    -179.6102                                         !
 ! D344  D(112,101,102,111)     -0.4967                                         !
 ! D345  D(81,101,112,114)      -4.0216                                         !
 ! D346  D(81,101,112,118)     175.6165                                         !
 ! D347  D(102,101,112,114)    179.6167                                         !
 ! D348  D(102,101,112,118)     -0.7452                                         !
 ! D349  D(78,102,111,108)       1.5825                                         !
 ! D350  D(78,102,111,117)    -179.4795                                         !
 ! D351  D(101,102,111,108)   -177.4728                                         !
 ! D352  D(101,102,111,117)      1.4652                                         !
 ! D353  D(87,108,111,102)     -29.892                                          !
 ! D354  D(87,108,111,117)     151.2141                                         !
 ! D355  D(115,108,111,102)     83.8169                                         !
 ! D356  D(115,108,111,117)    -95.077                                          !
 ! D357  D(116,108,111,102)   -158.1504                                         !
 ! D358  D(116,108,111,117)     22.9557                                         !
 ! D359  D(102,111,117,118)     -1.17                                           !
 ! D360  D(102,111,117,119)    179.306                                          !
 ! D361  D(108,111,117,118)    177.6747                                         !
 ! D362  D(108,111,117,119)     -1.8492                                         !
 ! D363  D(101,112,118,117)      1.0                                            !
 ! D364  D(101,112,118,120)   -179.4961                                         !
 ! D365  D(114,112,118,117)   -179.3674                                         !
 ! D366  D(114,112,118,120)      0.1364                                         !
 ! D367  D(111,117,118,112)     -0.0652                                         !
 ! D368  D(111,117,118,120)   -179.5696                                         !
 ! D369  D(119,117,118,112)    179.4517                                         !
 ! D370  D(119,117,118,120)     -0.0527                                         !
 ! D371  D(9,121,128,8)         90.7407                                         !
 ! D372  D(68,121,128,8)      -179.4955                                         !
 --------------------------------------------------------------------------------
 Stoichiometry    C40H74N4O6P2Ru2
 Framework group  C1[X(C40H74N4O6P2Ru2)]
 Deg. of freedom   378
 Full point group                 C1      NOp   1
 Largest Abelian subgroup         C1      NOp   1
 Largest concise Abelian subgroup C1      NOp   1
                         Standard orientation:                         
 ---------------------------------------------------------------------
 Center     Atomic      Atomic             Coordinates (Angstroms)
 Number     Number       Type             X           Y           Z
 ---------------------------------------------------------------------
      1          1           0        0.456688   -1.415543   -3.910186
      2          6           0       -0.608489   -1.191208   -3.761314
      3          1           0       -1.115359   -1.298841   -4.732756
      4          1           0       -0.689138   -0.147995   -3.421237
      5          1           0       -0.742968    0.908820    2.578566
      6          8           0       -0.733134    0.990691   -1.308105
      7          1           0       -0.864073    3.103158    1.532302
      8          8           0       -1.306545   -1.170523    0.327094
      9          1           0       -0.117981    0.239495   -1.318471
     10          6           0       -1.156049   -2.121354   -2.700528
     11          1           0       -1.341891    0.632340    4.243888
     12          1           0       -1.193937   -3.163626   -3.074474
     13          6           0       -1.549557    1.154463    3.293467
     14          1           0       -1.171424    2.920578   -0.199283
     15          1           0       -1.502050    2.232864    3.505264
     16          1           0       -0.494568   -2.112239   -1.824451
     17          6           0       -1.486834    3.465823    0.703587
     18          1           0       -1.286868    4.542678    0.570686
     19          1           0       -2.173477   -2.854878   -0.514451
     20         44           0       -2.517756    0.090583   -0.768734
     21          1           0       -2.326150   -1.226770    2.007940
     22          7           0       -2.494095   -1.726325   -2.214072
     23          6           0       -2.974188   -2.748207   -1.263999
     24          6           0       -2.934929    0.725465    2.803653
     25          1           0       -2.703223   -1.174972    3.772429
     26          1           0       -2.826441    3.735652    3.114007
     27          6           0       -2.998635   -0.808286    2.774266
     28          6           0       -2.981564    3.263451    0.971619
     29         15           0       -3.213706    1.378245    1.022070
     30          1           0       -3.152897   -3.720179   -1.754684
     31          6           0       -3.411913    4.015548    2.229515
     32          1           0       -3.116889   -0.676328   -3.904432
     33          1           0       -2.772344   -3.048496   -4.744441
     34          1           0       -3.249140    5.093187    2.059283
     35          6           0       -3.462210   -1.536119   -3.317261
     36          1           0       -3.767093    0.773297    4.776240
     37          6           0       -3.394992    1.146020   -1.984718
     38          6           0       -4.009163    1.200498    3.788484
     39          1           0       -3.484499    3.398297   -1.163729
     40          6           0       -3.769977    3.841994   -0.204276
     41          1           0       -4.058736    2.288109    3.907822
     42          1           0       -3.547886    4.920292   -0.265006
     43          6           0       -4.203923   -2.277376   -0.548017
     44          7           0       -4.188136   -0.971257   -0.219529
     45          6           0       -3.691834   -2.730519   -4.231517
     46          1           0       -4.021291   -1.171234    2.589086
     47          1           0       -4.415009   -1.230430   -2.860535
     48          1           0       -4.480867    3.878288    2.454358
     49          1           0       -4.104848   -3.600705   -3.699458
     50          6           0       -5.047854    1.043740    0.777575
     51          1           0       -4.420835   -2.448444   -5.005966
     52          1           0       -5.010973    0.830454    3.523440
     53          6           0       -5.211889   -0.410678    0.461240
     54          6           0       -5.278999   -3.087261   -0.201492
     55          1           0       -4.859060    3.744044   -0.074320
     56          1           0       -5.275918   -4.140917   -0.482922
     57          1           0       -5.329991    1.632039   -0.110683
     58          1           0       -5.694708    1.354080    1.609012
     59          6           0       -6.310915   -1.178964    0.837343
     60          6           0       -6.343793   -2.530211    0.503610
     61          1           0       -7.128154   -0.715768    1.391032
     62          1           0       -7.197947   -3.146359    0.789762
     63          8           0       -3.886775    1.769078   -2.837208
     64          6           0        0.534085   -3.717389    2.889716
     65          1           0        1.031909    1.208481   -2.611090
     66          8           0        0.650501    0.639164    1.170655
     67          1           0        1.125486    3.119745   -1.165329
     68          8           0        1.442615   -1.311025   -0.694848
     69          1           0        0.260650    1.024852    0.361092
     70          6           0        0.800545   -2.404188    2.170769
     71          1           0        1.682015    1.044328   -4.260912
[...]
 Alpha virt. eigenvalues --    1.35970   1.37119   1.37223   1.37356   1.37543
 Alpha virt. eigenvalues --    1.37995   1.38464   1.39216   1.39294   1.39452
 Alpha virt. eigenvalues --    1.39786   1.39945   1.40364   1.40631   1.40685
 Alpha virt. eigenvalues --    1.41036   1.41338   1.41639   1.41818   1.42316
 Alpha virt. eigenvalues --    1.42650   1.43064   1.43625   1.43729   1.44075
 Alpha virt. eigenvalues --    1.44460   1.44544   1.44791   1.45069   1.45334
 Alpha virt. eigenvalues --    1.45713   1.45736   1.46064   1.46356   1.46677
 Alpha virt. eigenvalues --    1.46963   1.47116   1.47320   1.47486   1.48118
 Alpha virt. eigenvalues --    1.48362   1.48669   1.48802   1.48950   1.49114
 Alpha virt. eigenvalues --    1.49275   1.49612   1.49975   1.50632   1.50813
 Alpha virt. eigenvalues --    1.50817   1.51156   1.51254   1.51653   1.52331
 Alpha virt. eigenvalues --    1.52846   1.53024   1.53150   1.53427   1.53554
 Alpha virt. eigenvalues --    1.53949   1.54057   1.54464   1.54700   1.55341
 Alpha virt. eigenvalues --    1.55673   1.55770   1.56005   1.56200   1.56308
 Alpha virt. eigenvalues --    1.56800   1.57069   1.57261   1.57712   1.57930
 Alpha virt. eigenvalues --    1.58126   1.58794   1.58946   1.59134   1.59852
 Alpha virt. eigenvalues --    1.60346   1.60510   1.61368   1.61579   1.61832
 Alpha virt. eigenvalues --    1.62289   1.62454   1.62576   1.63081   1.63111
 Alpha virt. eigenvalues --    1.63411   1.63589   1.63936   1.64454   1.64474
 Alpha virt. eigenvalues --    1.64827   1.65246   1.65357   1.65850   1.66043
 Alpha virt. eigenvalues --    1.66243   1.66390   1.66588   1.66811   1.67043
 Alpha virt. eigenvalues --    1.67319   1.67577   1.67729   1.67992   1.68029
 Alpha virt. eigenvalues --    1.68542   1.68772   1.68928   1.69054   1.69444
 Alpha virt. eigenvalues --    1.69646   1.69850   1.70065   1.70443   1.70658
 Alpha virt. eigenvalues --    1.70913   1.71233   1.71577   1.71667   1.72183
 Alpha virt. eigenvalues --    1.72420   1.72518   1.72667   1.72887   1.73016
 Alpha virt. eigenvalues --    1.73054   1.73266   1.73414   1.73693   1.73797
 Alpha virt. eigenvalues --    1.74151   1.74440   1.74794   1.75119   1.75237
 Alpha virt. eigenvalues --    1.75455   1.75633   1.75702   1.76183   1.76255
 Alpha virt. eigenvalues --    1.76412   1.76786   1.76870   1.77146   1.77191
 Alpha virt. eigenvalues --    1.77473   1.77602   1.78020   1.78182   1.78224
 Alpha virt. eigenvalues --    1.78473   1.78865   1.79111   1.79215   1.79340
 Alpha virt. eigenvalues --    1.79514   1.79774   1.80062   1.80182   1.80594
 Alpha virt. eigenvalues --    1.80842   1.81162   1.81495   1.81875   1.82107
 Alpha virt. eigenvalues --    1.82459   1.82690   1.82742   1.82893   1.83308
 Alpha virt. eigenvalues --    1.83516   1.83916   1.84342   1.84472   1.84848
 Alpha virt. eigenvalues --    1.84958   1.85283   1.85570   1.85585   1.86035
 Alpha virt. eigenvalues --    1.86134   1.86585   1.86965   1.87068   1.87361
 Alpha virt. eigenvalues --    1.87556   1.87687   1.88120   1.88447   1.88620
 Alpha virt. eigenvalues --    1.88924   1.89037   1.89302   1.89841   1.90017
 Alpha virt. eigenvalues --    1.90494   1.90947   1.91361   1.91549   1.92186
 Alpha virt. eigenvalues --    1.92312   1.92720   1.92957   1.93124   1.93391
 Alpha virt. eigenvalues --    1.93548   1.94388   1.94693   1.94927   1.95126
 Alpha virt. eigenvalues --    1.95165   1.95620   1.95952   1.96098   1.96497
 Alpha virt. eigenvalues --    1.96674   1.97373   1.97576   1.97651   1.98247
 Alpha virt. eigenvalues --    1.98585   1.98929   1.99049   1.99598   1.99628
 Alpha virt. eigenvalues --    1.99963   2.00232   2.00481   2.00851   2.01657
 Alpha virt. eigenvalues --    2.01703   2.01961   2.02354   2.02602   2.03190
 Alpha virt. eigenvalues --    2.03440   2.03668   2.04343   2.04537   2.04866
 Alpha virt. eigenvalues --    2.05121   2.05410   2.05660   2.06424   2.06742
 Alpha virt. eigenvalues --    2.06894   2.07187   2.07701   2.07895   2.08481
 Alpha virt. eigenvalues --    2.08585   2.09242   2.09541   2.09639   2.09794
 Alpha virt. eigenvalues --    2.10200   2.10406   2.10920   2.11232   2.11378
 Alpha virt. eigenvalues --    2.11645   2.12068   2.12296   2.12881   2.13181
 Alpha virt. eigenvalues --    2.13213   2.13523   2.13853   2.14294   2.14450
 Alpha virt. eigenvalues --    2.14926   2.15177   2.15313   2.16455   2.16970
 Alpha virt. eigenvalues --    2.17295   2.17906   2.18259   2.18636   2.19222
 Alpha virt. eigenvalues --    2.19524   2.20204   2.20541   2.21053   2.21335
 Alpha virt. eigenvalues --    2.22111   2.22564   2.22850   2.23731   2.23808
 Alpha virt. eigenvalues --    2.24251   2.24743   2.25033   2.25334   2.25822
 Alpha virt. eigenvalues --    2.25990   2.26679   2.27287   2.27366   2.27693
 Alpha virt. eigenvalues --    2.28476   2.28557   2.28634   2.29042   2.29163
 Alpha virt. eigenvalues --    2.29511   2.29991   2.30367   2.30928   2.31165
 Alpha virt. eigenvalues --    2.31806   2.32531   2.33240   2.33437   2.34038
 Alpha virt. eigenvalues --    2.34316   2.35094   2.35691   2.36895   2.38715
 Alpha virt. eigenvalues --    2.39572   2.39740   2.40688   2.40712   2.41368
 Alpha virt. eigenvalues --    2.41555   2.42027   2.42166   2.42579   2.42616
 Alpha virt. eigenvalues --    2.42903   2.43225   2.43606   2.43634   2.43980
 Alpha virt. eigenvalues --    2.44249   2.44492   2.44836   2.45048   2.45654
 Alpha virt. eigenvalues --    2.45856   2.45937   2.46729   2.46864   2.47311
 Alpha virt. eigenvalues --    2.47563   2.47685   2.47972   2.48574   2.48914
 Alpha virt. eigenvalues --    2.49026   2.49210   2.49873   2.49925   2.50279
 Alpha virt. eigenvalues --    2.50414   2.50912   2.51162   2.51426   2.51801
 Alpha virt. eigenvalues --    2.51950   2.52073   2.52805   2.52873   2.53154
 Alpha virt. eigenvalues --    2.53784   2.54127   2.54337   2.54668   2.54974
 Alpha virt. eigenvalues --    2.55465   2.55469   2.56221   2.56353   2.56506
 Alpha virt. eigenvalues --    2.56853   2.57069   2.57183   2.57897   2.58025
 Alpha virt. eigenvalues --    2.58167   2.58521   2.59072   2.59143   2.59273
 Alpha virt. eigenvalues --    2.59637   2.60000   2.60104   2.60495   2.60704
 Alpha virt. eigenvalues --    2.61206   2.61752   2.62021   2.62699   2.63185
 Alpha virt. eigenvalues --    2.63822   2.64045   2.64203   2.65044   2.65331
 Alpha virt. eigenvalues --    2.65623   2.66224   2.66480   2.66770   2.67562
 Alpha virt. eigenvalues --    2.67978   2.68948   2.69535   2.70269   2.71464
 Alpha virt. eigenvalues --    2.71647   2.72206   2.72794   2.73150   2.73544
 Alpha virt. eigenvalues --    2.73996   2.74620   2.74874   2.75279   2.75842
 Alpha virt. eigenvalues --    2.76596   2.76882   2.77134   2.78662   2.79576
 Alpha virt. eigenvalues --    2.79768   2.80101   2.80721   2.81093   2.81333
 Alpha virt. eigenvalues --    2.82502   2.82839   2.83727   2.84922   2.85375
 Alpha virt. eigenvalues --    2.86768   2.87162   2.87731   2.89016   2.90058
 Alpha virt. eigenvalues --    2.91667   2.92907   2.94368   2.95711   2.95852
 Alpha virt. eigenvalues --    3.01412   3.02265   3.03968   3.05885   3.06765
 Alpha virt. eigenvalues --    3.08368   3.09498   3.10189   3.10937   3.11655
 Alpha virt. eigenvalues --    3.13112   3.13958   3.14142   3.14812   3.18198
 Alpha virt. eigenvalues --    3.21961   3.51077   3.51211   3.60331   3.60514
 Alpha virt. eigenvalues --    3.88566   3.92776   3.96476   4.05346  34.98679
 Alpha virt. eigenvalues --   35.01611  35.03138  35.05682  35.09309  35.16653
 Alpha virt. eigenvalues --   46.06302  46.07255
          Condensed to atoms (all electrons):
 Mulliken charges:
               1
     1  H    0.063875
     2  C   -0.131683
     3  H    0.063294
     4  H    0.098900
     5  H    0.114205
     6  O   -0.528087
     7  H    0.061150
     8  O   -0.538652
     9  H    0.244575
    10  C    0.006775
    11  H    0.044435
    12  H    0.049898
    13  C   -0.067340
    14  H    0.109635
    15  H    0.054633
    16  H    0.063452
    17  C   -0.052906
    18  H    0.048313
    19  H    0.129790
    20  Ru   0.119075
    21  H    0.098268
    22  N   -0.382272
    23  C    0.122259
    24  C   -0.453187
    25  H    0.036949
    26  H    0.063217
    27  C   -0.042991
    28  C   -0.443819
    29  P    0.199023
    30  H    0.069348
    31  C    0.000967
    32  H    0.097325
    33  H    0.063083
    34  H    0.048107
    35  C   -0.051457
    36  H    0.045396
    37  C    0.001576
    38  C   -0.002842
    39  H    0.082789
    40  C   -0.034948
    41  H    0.039642
    42  H    0.053377
    43  C    0.016468
    44  N   -0.315460
    45  C   -0.074898
    46  H    0.066308
    47  H    0.129850
    48  H    0.061577
    49  H    0.065032
    50  C   -0.075414
    51  H    0.063026
    52  H    0.056534
    53  C    0.045886
    54  C   -0.050231
    55  H    0.066394
    56  H    0.034238
    57  H    0.122631
    58  H    0.083476
    59  C   -0.047320
    60  C    0.076947
    61  H    0.035772
    62  H    0.047577
    63  O   -0.188747
    64  C   -0.080851
    65  H    0.076869
    66  O   -0.536475
    67  H    0.065178
    68  O   -0.538577
    69  H    0.245538
    70  C   -0.035428
    71  H    0.048468
    72  C   -0.038227
    73  H    0.098972
    74  H    0.055243
    75  C   -0.045051
    76  H    0.047652
    77  H    0.129332
    78  Ru   0.093582
    79  H    0.113233
    80  N   -0.375781
    81  C    0.131263
    82  C   -0.456292
    83  H    0.038090
    84  H    0.060905
    85  C   -0.046117
    86  C   -0.444807
    87  P    0.186873
    88  H    0.071194
    89  C    0.000351
    90  H    0.100097
    91  H    0.099639
    92  H    0.048646
    93  C   -0.007076
    94  H    0.046717
    95  C   -0.017473
    96  C   -0.004070
    97  H    0.072475
    98  C   -0.035246
    99  H    0.040001
   100  H    0.052428
   101  C    0.021241
   102  N   -0.315319
   103  C   -0.124555
   104  H    0.069174
   105  H    0.058249
   106  H    0.063269
   107  H    0.065935
   108  C   -0.081191
   109  H    0.069651
   110  H    0.056470
   111  C    0.052115
   112  C   -0.047834
   113  H    0.066500
   114  H    0.034958
   115  H    0.122410
   116  H    0.086619
   117  C   -0.045864
   118  C    0.076557
   119  H    0.036143
   120  H    0.047459
   121  H    0.238710
   122  O   -0.186320
   123  H    0.064808
   124  H    0.060404
   125  H    0.065484
   126  H    0.081545
   127  H    0.090783
   128  H    0.228532
 Sum of Mulliken charges =  -0.00000
 Mulliken charges with hydrogens summed into heavy atoms:
               1
     2  C    0.094386
     6  O   -0.283512
     8  O   -0.310121
    10  C    0.120125
    13  C    0.145933
    17  C    0.166193
    20  Ru   0.119075
    22  N   -0.382272
    23  C    0.321397
    24  C   -0.453187
    27  C    0.158533
    28  C   -0.443819
    29  P    0.199023
    31  C    0.173869
    35  C    0.175718
    37  C    0.001576
    38  C    0.138730
    40  C    0.167612
    43  C    0.016468
    44  N   -0.315460
    45  C    0.116243
    50  C    0.130694
    53  C    0.045886
    54  C   -0.015993
    59  C   -0.011548
    60  C    0.124525
    63  O   -0.188747
    64  C    0.109845
    66  O   -0.290937
    68  O   -0.299867
    70  C    0.136900
    72  C    0.142352
    75  C    0.166751
    78  Ru   0.093582
    80  N   -0.375781
    81  C    0.331788
    82  C   -0.456292
    85  C    0.174381
    86  C   -0.444807
    87  P    0.186873
    89  C    0.173171
    93  C    0.151269
    95  C   -0.017473
    96  C    0.139118
    98  C    0.156156
   101  C    0.021241
   102  N   -0.315319
   103  C    0.110670
   108  C    0.127838
   111  C    0.052115
   112  C   -0.012875
   117  C   -0.009721
   118  C    0.124015
   122  O   -0.186320
 Electronic spatial extent (au):  <R**2>=          35679.0155
 Charge=              0.0000 electrons
 Dipole moment (field-independent basis, Debye):
    X=             -0.2645    Y=             -7.5975    Z=              1.2211  Tot=              7.6995
 Quadrupole moment (field-independent basis, Debye-Ang):
   XX=           -249.9024   YY=           -333.2659   ZZ=           -373.6610
   XY=              3.0960   XZ=            -26.2688   YZ=              1.3500
 Traceless Quadrupole moment (field-independent basis, Debye-Ang):
   XX=             69.0407   YY=            -14.3228   ZZ=            -54.7179
   XY=              3.0960   XZ=            -26.2688   YZ=              1.3500
 Octapole moment (field-independent basis, Debye-Ang**2):
  XXX=             22.9744  YYY=            -87.2422  ZZZ=            -12.4101  XYY=             14.2375
  XXY=           -189.2319  XXZ=              2.1540  XZZ=            -18.1878  YZZ=            -70.1232
  YYZ=             16.1801  XYZ=           -116.0837
 Hexadecapole moment (field-independent basis, Debye-Ang**3):
 XXXX=         -23152.5848 YYYY=          -9766.2268 ZZZZ=          -9953.1642 XXXY=            -37.5535
 XXXZ=           -831.2622 YYYX=            -70.3024 YYYZ=             -4.6669 ZZZX=            208.5335
 ZZZY=             -0.6825 XXYY=          -5429.5356 XXZZ=          -6433.8462 YYZZ=          -3424.6549
 XXYZ=             26.6180 YYXZ=             98.2981 ZZXY=             29.2800
 N-N= 1.079137513366D+04 E-N=-2.882333725238D+04  KE= 2.970785175511D+03
 1\1\GINC-NODE286\SP\RPBE1PBE TD-FC\GenECP\C40H74N4O6P2Ru2\JS1212\20-Au
 g-2020\0\\# genecp pbe1pbe EmpiricalDispersion=GD3BJ scrf=(SMD,solvent
 =water) td=nstates=25 geom=allcheck\\Title Card Required\\0,1\H,0,-1.1
 823989557,-8.4220344131,1.3236869632\C,0,-0.4561749232,-9.1266269198,1
 .7517512644\H,0,-0.9018199445,-9.5608642357,2.6600675227\H,0,0.4455362
 397,-8.5579366754,2.0237030194\H,0,4.9146020494,-8.1399335944,-2.09577
 75885\O,0,2.5085671279,-7.9580063369,0.9523216095\H,0,5.6772903926,-6.
 8494586988,-0.1781139395\O,0,2.4592774557,-9.7932847654,-1.1220083609\
 H,0,1.749645358,-7.936643581,0.3470135634\C,0,-0.1130240504,-10.164522
 6582,0.7051939661\H,0,6.0701418705,-8.8346076326,-3.2750161934\H,0,-0.
 9807081909,-10.8248240747,0.5083986941\C,0,5.8916897124,-8.6459457283,
 -2.2018894837\H,0,4.6130523922,-7.1487012084,1.2017539955\H,0,6.675115
 4108,-7.9506463585,-1.86593412\H,0,0.1395837718,-9.6663160216,-0.23986
 18992\C,0,5.6682498073,-7.0895631956,0.8935170598\H,0,6.16270984,-6.26
 42837109,1.433598212\H,0,1.2799328669,-11.4867638496,-0.9268284801\Ru,
 0,3.1134425296,-9.9341553799,0.8300373217\H,0,3.9563260045,-10.6837230
 522,-2.0352282574\N,0,1.0587190464,-10.9893595953,1.065354488\C,0,1.24
 36692387,-12.0271857651,0.0328418299\C,0,5.9559948524,-9.9848229283,-1
 .4626434796\H,0,5.2763428124,-11.0046634527,-3.2238568519\H,0,7.976746
 0325,-8.054042321,-0.2973253236\C,0,5.0115168823,-10.9793258433,-2.152
 7446415\C,0,6.4024913194,-8.3989337557,1.1992156529\P,0,5.3673511901,-
 9.7451256251,0.3467542144\H,0,0.4112303756,-12.7512448249,0.0179627591
 \C,0,7.8637091159,-8.3140445295,0.7624230692\H,0,0.9341441309,-10.7784
 306495,3.136024166\H,0,-1.2328739281,-11.9426512167,2.5034647186\H,0,8
 .352300151,-7.5163582296,1.3470205676\C,0,0.9287531023,-11.598757243,2
 .4078121533\H,0,7.6152887477,-10.672914472,-2.6284723733\C,0,3.4092421
 581,-9.9351787207,2.6396253936\C,0,7.3700591208,-10.5686390155,-1.5580
 757254\H,0,5.3716451865,-8.6435737316,3.1249229056\C,0,6.3854516838,-8
 .6252730959,2.7116691964\H,0,8.1457714429,-9.9411058715,-1.1063340301\
 H,0,6.9161200918,-7.7839929786,3.1874601328\C,0,2.5573781026,-12.72738
 67268,0.2073378808\N,0,3.5709520324,-11.9204096557,0.5755167724\C,0,-0
 .2859691263,-12.4864862125,2.6349062369\H,0,5.1414663788,-12.001793298
 ,-1.7660645657\H,0,1.8479446665,-12.1745858836,2.5905097092\H,0,8.4143
 752465,-9.2468936558,0.9589370203\H,0,-0.3013102939,-13.3647281668,1.9
 720749154\C,0,5.8528298793,-11.3866861393,1.1248033252\H,0,-0.26184279
 6,-12.861582433,3.6690736857\H,0,7.4355562148,-11.5765350941,-1.121429
 24\C,0,4.8230987812,-12.4020997587,0.7363528311\C,0,2.7686701939,-14.0
 834915514,-0.0120182842\H,0,6.9100388786,-9.5467111713,3.0088989255\H,
 0,1.9333281791,-14.7215187366,-0.3027556145\H,0,5.7892611657,-11.21781
 2752,2.2120659477\H,0,6.8698901944,-11.7308473862,0.8942405843\C,0,5.0
 900409084,-13.7523517031,0.5239002802\C,0,4.0529500801,-14.6004251659,
 0.1450311019\H,0,6.1058465622,-14.1275255832,0.6519128569\H,0,4.244671
 6006,-15.6613703689,-0.0244907723\O,0,3.4868364291,-9.9109787315,3.801
 5994301\C,0,1.6386953958,-9.9963239215,-5.0877241258\H,0,1.005880273,-
 6.3934943128,1.3457867238\O,0,3.2138898038,-7.1648812797,-1.7039423597
 \H,0,3.065434429,-5.1879006701,1.1076803571\O,0,0.455682466,-7.6842103
 191,-1.5212518531\H,0,3.1235756209,-7.2081432878,-0.731264138\C,0,1.87
 98365867,-8.9543975852,-4.0066942553\H,0,-0.4380218288,-5.9306204208,2
 .2798040778\C,0,0.3614103744,-5.5473473967,1.6239144359\H,0,3.83018944
 4,-5.1498717356,-0.482819607\H,0,0.9672396586,-4.8555441848,2.22588403
 12\C,0,3.4823088877,-4.5148313804,0.3453252309\H,0,4.3459109459,-3.987
 6225117,0.7848244338\H,0,-0.4493256982,-8.2301607318,-3.4336663604\Ru,
 0,1.5612099379,-6.1881245542,-2.4488024255\H,0,-0.8671133672,-6.719067
 0595,-0.5709668921\N,0,1.3335306379,-7.6041247265,-4.2624539654\C,0,-0
 .1402135563,-7.6581812419,-4.3250452847\C,0,-0.2818125163,-4.856577357
 8,0.4195600574\H,0,-2.0771985511,-6.0202511708,0.5766154132\H,0,1.6451
 722705,-3.0670950376,1.8521798615\C,0,-1.3285978244,-5.7895247655,-0.2
 011516757\C,0,2.4624713812,-3.4860900586,-0.1524817601\P,0,1.055097949
 9,-4.5324484461,-0.9041536973\H,0,-0.4945059284,-8.1507152543,-5.24692
 65876\C,0,2.0568679877,-2.5443297484,0.981002209\H,0,1.526166559,-5.98
 01091624,-5.5566534117\H,0,3.8575570506,-6.7910063182,-4.6717032354\H,
 0,2.9608572006,-2.0107862105,1.3197953045\C,0,1.8680392869,-7.02494925
 25,-5.5131544331\H,0,-1.7632913188,-3.8936156274,1.6285371661\C,0,2.59
 79019225,-5.0100964976,-3.3844856077\C,0,-1.0172217384,-3.5913030164,0
 .8743318451\H,0,3.4868790766,-3.1968538686,-2.0835344453\C,0,3.1198421
 693,-2.6205584556,-1.2290242064\H,0,-0.373689042,-2.8363876163,1.33783
 518\H,0,3.9920938693,-2.1214431232,-0.7750043298\C,0,-0.7713870153,-6.
 3054432454,-4.1879075766\N,0,-0.1628008277,-5.4798577183,-3.3175700105
 \C,0,3.3805895731,-7.0895312613,-5.6151852898\H,0,-1.8685712618,-5.301
 6327101,-1.0280662178\H,0,1.4119115412,-7.5414647152,-6.380231124\H,0,
 1.3349070382,-1.782235631,0.6507435958\H,0,3.7318768371,-8.1002454285,
 -5.8676147997\C,0,0.1490927375,-3.4143393367,-2.111504902\H,0,3.724826
 6292,-6.4057241732,-6.4042232079\H,0,-1.5766677972,-3.1193437148,0.052
 693462\C,0,-0.6590267691,-4.2520205938,-3.0549527011\C,0,-1.9395733457
 ,-5.9207245088,-4.8373494657\H,0,2.4507318046,-1.8260404319,-1.5947443
 05\H,0,-2.4153429387,-6.6011230105,-5.5443761487\H,0,0.9441162373,-2.9
 190867023,-2.6929149448\H,0,-0.459341913,-2.6280362398,-1.6449808476\C
 ,0,-1.8372134369,-3.8249330688,-3.6627101793\C,0,-2.4829677142,-4.6687
 480012,-4.5618295944\H,0,-2.2343608054,-2.8355295138,-3.4341155918\H,0
 ,-3.4034123981,-4.3474799401,-5.0525771039\H,0,1.0952514994,-8.4055944
 022,-1.374747638\O,0,3.248669574,-4.3042328844,-4.0479393528\H,0,2.093
 1953987,-10.9430309232,-4.7585230984\H,0,2.0920945188,-9.734844512,-6.
 0564604869\H,0,0.5682415796,-10.1927713504,-5.2551130293\H,0,1.4568528
 274,-9.2956349969,-3.0560919087\H,0,2.952390797,-8.830627327,-3.816682
 6028\H,0,2.8297350182,-8.9428692197,-1.4529733187\\Version=ES64L-G16Re
 vA.03\State=1-A\HF=-3109.4007612\RMSD=4.683e-09\PG=C01 [X(C40H74N4O6P2
 Ru2)]\\@


 SOME PEOPLE TRY TO PULL THE WOOL OVER YOUR EYES
 USING THE WRONG YARN.
 Job cpu time:       6 days 14 hours 47 minutes 47.0 seconds.
 Elapsed time:       0 days  7 hours 57 minutes 14.3 seconds.
 File lengths (MBytes):  RWF=  18041 Int=      0 D2E=      0 Chk=   1507 Scr=      1
 Normal termination of Gaussian 16 at Thu Aug 20 22:14:56 2020.
