 Entering Gaussian System, Link 0=g16
 Initial command:
 /cluster/chemistry/gaussian/g16/l1.exe "/scratch/js1212.13783/scratch/Gau-16633.inp" -scrdir="/scratch/js1212.13783/scratch/"
 Entering Link 1 = /cluster/chemistry/gaussian/g16/l1.exe PID=     16634.
  
 Copyright (c) 1988,1990,1992,1993,1995,1998,2003,2009,2016,
            Gaussian, Inc.  All Rights Reserved.
  
 This is part of the Gaussian(R) 16 program.  It is based on
 the Gaussian(R) 09 system (copyright 2009, Gaussian, Inc.),
 the Gaussian(R) 03 system (copyright 2003, Gaussian, Inc.),
 the Gaussian(R) 98 system (copyright 1998, Gaussian, Inc.),
 the Gaussian(R) 94 system (copyright 1995, Gaussian, Inc.),
 the Gaussian 92(TM) system (copyright 1992, Gaussian, Inc.),
 the Gaussian 90(TM) system (copyright 1990, Gaussian, Inc.),
 the Gaussian 88(TM) system (copyright 1988, Gaussian, Inc.),
 the Gaussian 86(TM) system (copyright 1986, Carnegie Mellon
 University), and the Gaussian 82(TM) system (copyright 1983,
 Carnegie Mellon University). Gaussian is a federally registered
 trademark of Gaussian, Inc.
  
 This software contains proprietary and confidential information,
 including trade secrets, belonging to Gaussian, Inc.
  
 This software is provided under written license and may be
 used, copied, transmitted, or stored only in accord with that
 written license.
  
 The following legend is applicable only to US Government
 contracts under FAR:
  
                    RESTRICTED RIGHTS LEGEND
  
 Use, reproduction and disclosure by the US Government is
 subject to restrictions as set forth in subparagraphs (a)
 and (c) of the Commercial Computer Software - Restricted
 Rights clause in FAR 52.227-19.
  
 Gaussian, Inc.
 340 Quinnipiac St., Bldg. 40, Wallingford CT 06492
  
  
 ---------------------------------------------------------------
 Warning -- This program may not be used in any manner that
 competes with the business of Gaussian, Inc. or will provide
 assistance to any competitor of Gaussian, Inc.  The licensee
 of this program is prohibited from giving any competitor of
 Gaussian, Inc. access to this program.  By using this program,
 the user acknowledges that Gaussian, Inc. is engaged in the
 business of creating and licensing software in the field of
 computational chemistry and represents and warrants to the
 licensee that it is not a competitor of Gaussian, Inc. and that
 it will not use this program in any manner prohibited above.
 ---------------------------------------------------------------
  

 Cite this work as:
 Gaussian 16, Revision A.03,
 M. J. Frisch, G. W. Trucks, H. B. Schlegel, G. E. Scuseria, 
 M. A. Robb, J. R. Cheeseman, G. Scalmani, V. Barone, 
 G. A. Petersson, H. Nakatsuji, X. Li, M. Caricato, A. V. Marenich, 
 J. Bloino, B. G. Janesko, R. Gomperts, B. Mennucci, H. P. Hratchian, 
 J. V. Ortiz, A. F. Izmaylov, J. L. Sonnenberg, D. Williams-Young, 
 F. Ding, F. Lipparini, F. Egidi, J. Goings, B. Peng, A. Petrone, 
 T. Henderson, D. Ranasinghe, V. G. Zakrzewski, J. Gao, N. Rega, 
 G. Zheng, W. Liang, M. Hada, M. Ehara, K. Toyota, R. Fukuda, 
 J. Hasegawa, M. Ishida, T. Nakajima, Y. Honda, O. Kitao, H. Nakai, 
 T. Vreven, K. Throssell, J. A. Montgomery, Jr., J. E. Peralta, 
 F. Ogliaro, M. J. Bearpark, J. J. Heyd, E. N. Brothers, K. N. Kudin, 
 V. N. Staroverov, T. A. Keith, R. Kobayashi, J. Normand, 
 K. Raghavachari, A. P. Rendell, J. C. Burant, S. S. Iyengar, 
 J. Tomasi, M. Cossi, J. M. Millam, M. Klene, C. Adamo, R. Cammi, 
 J. W. Ochterski, R. L. Martin, K. Morokuma, O. Farkas, 
 J. B. Foresman, and D. J. Fox, Gaussian, Inc., Wallingford CT, 2016.
 
 ******************************************
 Gaussian 16:  ES64L-G16RevA.03 25-Dec-2016
                 8-Nov-2018 
 ******************************************
 %rwf=/scratch/js1212.13783/2-Full-Cis-A-GPOF.rwf
 %nosave
 %nprocshared=20
 Will use up to   20 processors via shared memory.
 %mem=3000MB
 %chk=/scratch/js1212.13783/2-Full-Cis-A-GPOF.chk
 ---------------------------------------------------
 # opt freq genecp pbe1pbe EmpiricalDispersion=GD3BJ
 ---------------------------------------------------
 1/18=20,19=15,26=3,38=1/1,3;
 2/9=110,12=2,17=6,18=5,40=1/2;
 3/5=7,11=2,16=1,17=8,25=1,30=1,71=1,74=-13,124=41/1,2,3;
 4//1;
 5/5=2,38=5/2;
 6/7=2,8=2,9=2,10=2,28=1/1;
 7//1,2,3,16;
 1/18=20,19=15,26=3/3(2);
 2/9=110/2;
 99//99;
 2/9=110/2;
 3/5=7,6=1,11=2,16=1,17=8,25=1,30=1,71=1,74=-13,82=7,124=41/1,2,3;
 4/5=5,16=3,69=1/1;
 5/5=2,38=5/2;
 7//1,2,3,16;
 1/18=20,19=15,26=3/3(-5);
 2/9=110/2;
 6/7=2,8=2,9=2,10=2,19=2,28=1/1;
 99/9=1/99;
 -------------------
 Title Card Required
 -------------------
 Symbolic Z-matrix:
 Charge =  0 Multiplicity = 1
 N                    -0.7979    1.4328   -0.0362 
 C                    -2.0183    1.8548    0.321 
 C                     0.0967    2.2643   -0.5947 
 C                    -2.4043    3.1786    0.1426 
 C                    -1.482     4.0677   -0.4062 
 C                    -0.2214    3.6114   -0.7772 
 C                    -2.854     0.7972    0.9768 
 H                    -3.4037    3.5051    0.4327 
 H                    -1.7502    5.1159   -0.5531 
 H                     0.5107    4.2871   -1.2213 
 C                     1.3902    1.6467   -1.029 
 N                    -2.6975   -0.5228    0.3291 
 H                    -3.9121    1.1073    1.0314 
 H                    -2.4844    0.6815    2.0092 
 H                     1.2102    1.2583   -2.048 
 P                     1.7405    0.0751   -0.07 
 H                     2.2093    2.38     -1.0541 
 Ru                   -0.4067   -0.6291    0.1175 
 C                    -3.3442   -0.5458   -1.0068 
 C                     2.9976   -0.835    -1.1862 
 C                    -3.2657   -1.5314    1.2563 
 C                     2.5922    0.6448    1.5447 
 C                     2.2001   -1.5425   -2.289 
 C                     3.7519   -1.9056   -0.3912 
 C                     3.9923    0.1228   -1.8519 
 C                     1.696     1.7201    2.1711 
 C                     3.9884    1.2377    1.3488 
 C                     2.6482   -0.5406    2.5148 
 H                    -0.3919   -0.5653    1.7404 
 H                    -2.7519    0.1205   -1.6506 
 C                    -4.8334   -0.2346   -1.0542 
 H                    -3.1578   -1.5462   -1.4181 
 H                    -2.6254   -1.508     2.15 
 C                    -3.3252   -2.9408    0.7056 
 H                    -4.2811   -1.214     1.5677 
 C                    -0.47286  -0.69911  -1.70611 
 O                    -0.34657  -2.77238   0.4061 
 H                    -0.23913  -2.94745   1.34786 
 H                    -2.3521   -3.2522    0.3021 
 H                    -4.0847   -3.0575   -0.0816 
 H                    -3.5891   -3.6311    1.5206 
 H                    -5.1805   -0.354    -2.0919 
 H                    -5.0677    0.8      -0.7599 
 H                    -5.4378   -0.9111   -0.4293 
 H                     2.9085   -1.9271   -3.0425 
 H                     1.4692   -0.8766   -2.7699 
 H                     1.6374   -2.395    -1.8833 
 H                     4.3329   -2.5209   -1.099 
 H                     3.0628   -2.5799    0.1393 
 H                     4.4621   -1.4853    0.3348 
 H                     4.7047   -0.4694   -2.4513 
 H                     4.5785    0.7138   -1.1365 
 H                     3.491     0.814    -2.5452 
 H                     4.7228    0.4966    1.0049 
 H                     4.3494    1.6273    2.316 
 H                     3.9899    2.0807    0.6401 
 H                     3.322    -1.3373    2.1736 
 H                     1.6459   -0.9707    2.6566 
 H                     3.0178   -0.1882    3.4928 
 H                     2.0956    1.9756    3.1669 
 H                     0.6666    1.3533    2.295 
 H                     1.6763    2.648     1.5788 
 O                    -0.45729  -0.76433  -2.8714 
 

 GradGradGradGradGradGradGradGradGradGradGradGradGradGradGradGradGradGrad
 Berny optimization.
 Initialization pass.
                           ----------------------------
                           !    Initial Parameters    !
                           ! (Angstroms and Degrees)  !
 --------------------------                            --------------------------
 ! Name  Definition              Value          Derivative Info.                !
 --------------------------------------------------------------------------------
 ! R1    R(1,2)                  1.3398         estimate D2E/DX2                !
 ! R2    R(1,3)                  1.343          estimate D2E/DX2                !
 ! R3    R(1,18)                 2.1043         estimate D2E/DX2                !
 ! R4    R(2,4)                  1.3904         estimate D2E/DX2                !
 ! R5    R(2,7)                  1.499          estimate D2E/DX2                !
 ! R6    R(3,6)                  1.3961         estimate D2E/DX2                !
 ! R7    R(3,11)                 1.4977         estimate D2E/DX2                !
 ! R8    R(4,5)                  1.3937         estimate D2E/DX2                !
 ! R9    R(4,8)                  1.0907         estimate D2E/DX2                !
 ! R10   R(5,6)                  1.391          estimate D2E/DX2                !
 ! R11   R(5,9)                  1.0919         estimate D2E/DX2                !
 ! R12   R(6,10)                 1.0908         estimate D2E/DX2                !
 ! R13   R(7,12)                 1.4787         estimate D2E/DX2                !
 ! R14   R(7,13)                 1.104          estimate D2E/DX2                !
 ! R15   R(7,14)                 1.1027         estimate D2E/DX2                !
 ! R16   R(11,15)                1.1053         estimate D2E/DX2                !
 ! R17   R(11,16)                1.8741         estimate D2E/DX2                !
 ! R18   R(11,17)                1.0997         estimate D2E/DX2                !
 ! R19   R(12,19)                1.4844         estimate D2E/DX2                !
 ! R20   R(12,21)                1.4832         estimate D2E/DX2                !
 ! R21   R(16,18)                2.2675         estimate D2E/DX2                !
 ! R22   R(16,20)                1.9117         estimate D2E/DX2                !
 ! R23   R(16,22)                1.9124         estimate D2E/DX2                !
 ! R24   R(18,29)                1.6242         estimate D2E/DX2                !
 ! R25   R(18,36)                1.8262         estimate D2E/DX2                !
 ! R26   R(18,37)                2.1635         estimate D2E/DX2                !
 ! R27   R(19,30)                1.0997         estimate D2E/DX2                !
 ! R28   R(19,31)                1.5221         estimate D2E/DX2                !
 ! R29   R(19,32)                1.0976         estimate D2E/DX2                !
 ! R30   R(20,23)                1.5339         estimate D2E/DX2                !
 ! R31   R(20,24)                1.5321         estimate D2E/DX2                !
 ! R32   R(20,25)                1.533          estimate D2E/DX2                !
 ! R33   R(21,33)                1.0997         estimate D2E/DX2                !
 ! R34   R(21,34)                1.5143         estimate D2E/DX2                !
 ! R35   R(21,35)                1.1085         estimate D2E/DX2                !
 ! R36   R(22,26)                1.5336         estimate D2E/DX2                !
 ! R37   R(22,27)                1.5295         estimate D2E/DX2                !
 ! R38   R(22,28)                1.5328         estimate D2E/DX2                !
 ! R39   R(23,45)                1.1034         estimate D2E/DX2                !
 ! R40   R(23,46)                1.0995         estimate D2E/DX2                !
 ! R41   R(23,47)                1.0991         estimate D2E/DX2                !
 ! R42   R(24,48)                1.1032         estimate D2E/DX2                !
 ! R43   R(24,49)                1.1004         estimate D2E/DX2                !
 ! R44   R(24,50)                1.0991         estimate D2E/DX2                !
 ! R45   R(25,51)                1.1034         estimate D2E/DX2                !
 ! R46   R(25,52)                1.0976         estimate D2E/DX2                !
 ! R47   R(25,53)                1.0999         estimate D2E/DX2                !
 ! R48   R(26,60)                1.103          estimate D2E/DX2                !
 ! R49   R(26,61)                1.0998         estimate D2E/DX2                !
 ! R50   R(26,62)                1.101          estimate D2E/DX2                !
 ! R51   R(27,54)                1.0986         estimate D2E/DX2                !
 ! R52   R(27,55)                1.1034         estimate D2E/DX2                !
 ! R53   R(27,56)                1.1013         estimate D2E/DX2                !
 ! R54   R(28,57)                1.0978         estimate D2E/DX2                !
 ! R55   R(28,58)                1.0999         estimate D2E/DX2                !
 ! R56   R(28,59)                1.1033         estimate D2E/DX2                !
 ! R57   R(31,42)                1.1007         estimate D2E/DX2                !
 ! R58   R(31,43)                1.1009         estimate D2E/DX2                !
 ! R59   R(31,44)                1.1016         estimate D2E/DX2                !
 ! R60   R(34,39)                1.0985         estimate D2E/DX2                !
 ! R61   R(34,40)                1.1001         estimate D2E/DX2                !
 ! R62   R(34,41)                1.1002         estimate D2E/DX2                !
 ! R63   R(36,63)                1.1672         estimate D2E/DX2                !
 ! R64   R(37,38)                0.9639         estimate D2E/DX2                !
 ! A1    A(2,1,3)              121.5084         estimate D2E/DX2                !
 ! A2    A(2,1,18)             117.2898         estimate D2E/DX2                !
 ! A3    A(3,1,18)             120.8775         estimate D2E/DX2                !
 ! A4    A(1,2,4)              121.235          estimate D2E/DX2                !
 ! A5    A(1,2,7)              113.7181         estimate D2E/DX2                !
 ! A6    A(4,2,7)              124.9664         estimate D2E/DX2                !
 ! A7    A(1,3,6)              119.9991         estimate D2E/DX2                !
 ! A8    A(1,3,11)             116.1406         estimate D2E/DX2                !
 ! A9    A(6,3,11)             123.8312         estimate D2E/DX2                !
 ! A10   A(2,4,5)              118.3069         estimate D2E/DX2                !
 ! A11   A(2,4,8)              120.3492         estimate D2E/DX2                !
 ! A12   A(5,4,8)              121.343          estimate D2E/DX2                !
 ! A13   A(4,5,6)              119.7015         estimate D2E/DX2                !
 ! A14   A(4,5,9)              120.1889         estimate D2E/DX2                !
 ! A15   A(6,5,9)              120.1071         estimate D2E/DX2                !
 ! A16   A(3,6,5)              119.2176         estimate D2E/DX2                !
 ! A17   A(3,6,10)             119.8689         estimate D2E/DX2                !
 ! A18   A(5,6,10)             120.906          estimate D2E/DX2                !
 ! A19   A(2,7,12)             112.2839         estimate D2E/DX2                !
 ! A20   A(2,7,13)             110.9653         estimate D2E/DX2                !
 ! A21   A(2,7,14)             107.2643         estimate D2E/DX2                !
 ! A22   A(12,7,13)            111.9544         estimate D2E/DX2                !
 ! A23   A(12,7,14)            106.3187         estimate D2E/DX2                !
 ! A24   A(13,7,14)            107.7242         estimate D2E/DX2                !
 ! A25   A(3,11,15)            105.7593         estimate D2E/DX2                !
 ! A26   A(3,11,16)            111.0291         estimate D2E/DX2                !
 ! A27   A(3,11,17)            112.0202         estimate D2E/DX2                !
 ! A28   A(15,11,16)           101.9773         estimate D2E/DX2                !
 ! A29   A(15,11,17)           109.5477         estimate D2E/DX2                !
 ! A30   A(16,11,17)           115.5723         estimate D2E/DX2                !
 ! A31   A(7,12,19)            111.2194         estimate D2E/DX2                !
 ! A32   A(7,12,21)            107.0186         estimate D2E/DX2                !
 ! A33   A(19,12,21)           112.6544         estimate D2E/DX2                !
 ! A34   A(11,16,18)            97.2239         estimate D2E/DX2                !
 ! A35   A(11,16,20)           102.9066         estimate D2E/DX2                !
 ! A36   A(11,16,22)           105.3958         estimate D2E/DX2                !
 ! A37   A(18,16,20)           121.5429         estimate D2E/DX2                !
 ! A38   A(18,16,22)           116.387          estimate D2E/DX2                !
 ! A39   A(20,16,22)           109.9961         estimate D2E/DX2                !
 ! A40   A(1,18,16)             82.2817         estimate D2E/DX2                !
 ! A41   A(1,18,29)             92.0738         estimate D2E/DX2                !
 ! A42   A(1,18,36)             87.5866         estimate D2E/DX2                !
 ! A43   A(16,18,29)            93.5429         estimate D2E/DX2                !
 ! A44   A(16,18,36)            87.9162         estimate D2E/DX2                !
 ! A45   A(16,18,37)           107.0004         estimate D2E/DX2                !
 ! A46   A(29,18,37)            84.5701         estimate D2E/DX2                !
 ! A47   A(36,18,37)            95.5226         estimate D2E/DX2                !
 ! A48   A(12,19,30)           106.4299         estimate D2E/DX2                !
 ! A49   A(12,19,31)           116.8149         estimate D2E/DX2                !
 ! A50   A(12,19,32)           106.1039         estimate D2E/DX2                !
 ! A51   A(30,19,31)           112.6353         estimate D2E/DX2                !
 ! A52   A(30,19,32)           103.9693         estimate D2E/DX2                !
 ! A53   A(31,19,32)           109.9277         estimate D2E/DX2                !
 ! A54   A(16,20,23)           107.3068         estimate D2E/DX2                !
 ! A55   A(16,20,24)           110.6991         estimate D2E/DX2                !
 ! A56   A(16,20,25)           112.5072         estimate D2E/DX2                !
 ! A57   A(23,20,24)           107.863          estimate D2E/DX2                !
 ! A58   A(23,20,25)           108.2609         estimate D2E/DX2                !
 ! A59   A(24,20,25)           110.0283         estimate D2E/DX2                !
 ! A60   A(12,21,33)           105.6954         estimate D2E/DX2                !
 ! A61   A(12,21,34)           114.8735         estimate D2E/DX2                !
 ! A62   A(12,21,35)           109.3796         estimate D2E/DX2                !
 ! A63   A(33,21,34)           109.7692         estimate D2E/DX2                !
 ! A64   A(33,21,35)           107.396          estimate D2E/DX2                !
 ! A65   A(34,21,35)           109.4304         estimate D2E/DX2                !
 ! A66   A(16,22,26)           107.0673         estimate D2E/DX2                !
 ! A67   A(16,22,27)           114.4494         estimate D2E/DX2                !
 ! A68   A(16,22,28)           108.6793         estimate D2E/DX2                !
 ! A69   A(26,22,27)           108.2989         estimate D2E/DX2                !
 ! A70   A(26,22,28)           107.7643         estimate D2E/DX2                !
 ! A71   A(27,22,28)           110.3351         estimate D2E/DX2                !
 ! A72   A(20,23,45)           108.5387         estimate D2E/DX2                !
 ! A73   A(20,23,46)           112.3793         estimate D2E/DX2                !
 ! A74   A(20,23,47)           111.0124         estimate D2E/DX2                !
 ! A75   A(45,23,46)           109.8281         estimate D2E/DX2                !
 ! A76   A(45,23,47)           108.0837         estimate D2E/DX2                !
 ! A77   A(46,23,47)           106.9103         estimate D2E/DX2                !
 ! A78   A(20,24,48)           108.4276         estimate D2E/DX2                !
 ! A79   A(20,24,49)           111.7182         estimate D2E/DX2                !
 ! A80   A(20,24,50)           113.1825         estimate D2E/DX2                !
 ! A81   A(48,24,49)           107.2966         estimate D2E/DX2                !
 ! A82   A(48,24,50)           107.2627         estimate D2E/DX2                !
 ! A83   A(49,24,50)           108.6935         estimate D2E/DX2                !
 ! A84   A(20,25,51)           108.6331         estimate D2E/DX2                !
 ! A85   A(20,25,52)           113.5739         estimate D2E/DX2                !
 ! A86   A(20,25,53)           111.7549         estimate D2E/DX2                !
 ! A87   A(51,25,52)           107.3518         estimate D2E/DX2                !
 ! A88   A(51,25,53)           106.806          estimate D2E/DX2                !
 ! A89   A(52,25,53)           108.4147         estimate D2E/DX2                !
 ! A90   A(22,26,60)           108.631          estimate D2E/DX2                !
 ! A91   A(22,26,61)           111.0477         estimate D2E/DX2                !
 ! A92   A(22,26,62)           112.4363         estimate D2E/DX2                !
 ! A93   A(60,26,61)           108.3395         estimate D2E/DX2                !
 ! A94   A(60,26,62)           107.2742         estimate D2E/DX2                !
 ! A95   A(61,26,62)           108.9618         estimate D2E/DX2                !
 ! A96   A(22,27,54)           112.8825         estimate D2E/DX2                !
 ! A97   A(22,27,55)           108.8597         estimate D2E/DX2                !
 ! A98   A(22,27,56)           112.3578         estimate D2E/DX2                !
 ! A99   A(54,27,55)           107.09           estimate D2E/DX2                !
 ! A100  A(54,27,56)           108.3017         estimate D2E/DX2                !
 ! A101  A(55,27,56)           107.0581         estimate D2E/DX2                !
 ! A102  A(22,28,57)           112.766          estimate D2E/DX2                !
 ! A103  A(22,28,58)           110.5318         estimate D2E/DX2                !
 ! A104  A(22,28,59)           109.0411         estimate D2E/DX2                !
 ! A105  A(57,28,58)           108.3974         estimate D2E/DX2                !
 ! A106  A(57,28,59)           107.5595         estimate D2E/DX2                !
 ! A107  A(58,28,59)           108.4151         estimate D2E/DX2                !
 ! A108  A(19,31,42)           108.4034         estimate D2E/DX2                !
 ! A109  A(19,31,43)           113.0823         estimate D2E/DX2                !
 ! A110  A(19,31,44)           113.1778         estimate D2E/DX2                !
 ! A111  A(42,31,43)           106.6702         estimate D2E/DX2                !
 ! A112  A(42,31,44)           107.1679         estimate D2E/DX2                !
 ! A113  A(43,31,44)           107.9826         estimate D2E/DX2                !
 ! A114  A(21,34,39)           111.2603         estimate D2E/DX2                !
 ! A115  A(21,34,40)           112.7115         estimate D2E/DX2                !
 ! A116  A(21,34,41)           108.9048         estimate D2E/DX2                !
 ! A117  A(39,34,40)           108.5828         estimate D2E/DX2                !
 ! A118  A(39,34,41)           107.8622         estimate D2E/DX2                !
 ! A119  A(40,34,41)           107.3335         estimate D2E/DX2                !
 ! A120  A(18,37,38)           108.2621         estimate D2E/DX2                !
 ! A121  L(1,18,37,16,-1)      189.2821         estimate D2E/DX2                !
 ! A122  L(29,18,36,1,-1)      179.6604         estimate D2E/DX2                !
 ! A123  L(18,36,63,5,-1)      181.5874         estimate D2E/DX2                !
 ! A124  L(1,18,37,16,-2)      177.015          estimate D2E/DX2                !
 ! A125  L(29,18,36,1,-2)      181.5187         estimate D2E/DX2                !
 ! A126  L(18,36,63,5,-2)      177.3156         estimate D2E/DX2                !
 ! D1    D(3,1,2,4)             -0.7938         estimate D2E/DX2                !
 ! D2    D(3,1,2,7)           -177.6864         estimate D2E/DX2                !
 ! D3    D(18,1,2,4)          -174.3068         estimate D2E/DX2                !
 ! D4    D(18,1,2,7)             8.8005         estimate D2E/DX2                !
 ! D5    D(2,1,3,6)              1.9824         estimate D2E/DX2                !
 ! D6    D(2,1,3,11)          -176.1297         estimate D2E/DX2                !
 ! D7    D(18,1,3,6)           175.2644         estimate D2E/DX2                !
 ! D8    D(18,1,3,11)           -2.8477         estimate D2E/DX2                !
 ! D9    D(2,1,18,16)         -164.4384         estimate D2E/DX2                !
 ! D10   D(2,1,18,29)          -71.1424         estimate D2E/DX2                !
 ! D11   D(2,1,18,36)          107.3389         estimate D2E/DX2                !
 ! D12   D(3,1,18,16)           22.0053         estimate D2E/DX2                !
 ! D13   D(3,1,18,29)          115.3012         estimate D2E/DX2                !
 ! D14   D(3,1,18,36)          -66.2174         estimate D2E/DX2                !
 ! D15   D(2,1,37,38)          -76.0451         estimate D2E/DX2                !
 ! D16   D(3,1,37,38)          110.6201         estimate D2E/DX2                !
 ! D17   D(1,2,4,5)             -0.718          estimate D2E/DX2                !
 ! D18   D(1,2,4,8)            179.6066         estimate D2E/DX2                !
 ! D19   D(7,2,4,5)            175.8101         estimate D2E/DX2                !
 ! D20   D(7,2,4,8)             -3.8654         estimate D2E/DX2                !
 ! D21   D(1,2,7,12)           -40.2168         estimate D2E/DX2                !
 ! D22   D(1,2,7,13)          -166.3533         estimate D2E/DX2                !
 ! D23   D(1,2,7,14)            76.2284         estimate D2E/DX2                !
 ! D24   D(4,2,7,12)           143.0255         estimate D2E/DX2                !
 ! D25   D(4,2,7,13)            16.889          estimate D2E/DX2                !
 ! D26   D(4,2,7,14)          -100.5292         estimate D2E/DX2                !
 ! D27   D(1,3,6,5)             -1.6375         estimate D2E/DX2                !
 ! D28   D(1,3,6,10)           179.3505         estimate D2E/DX2                !
 ! D29   D(11,3,6,5)           176.3222         estimate D2E/DX2                !
 ! D30   D(11,3,6,10)           -2.6897         estimate D2E/DX2                !
 ! D31   D(1,3,11,15)           85.8643         estimate D2E/DX2                !
 ! D32   D(1,3,11,16)          -23.9825         estimate D2E/DX2                !
 ! D33   D(1,3,11,17)         -154.8509         estimate D2E/DX2                !
 ! D34   D(6,3,11,15)          -92.1674         estimate D2E/DX2                !
 ! D35   D(6,3,11,16)          157.9857         estimate D2E/DX2                !
 ! D36   D(6,3,11,17)           27.1174         estimate D2E/DX2                !
 ! D37   D(2,4,5,6)              1.005          estimate D2E/DX2                !
 ! D38   D(2,4,5,9)           -179.5574         estimate D2E/DX2                !
 ! D39   D(8,4,5,6)           -179.3229         estimate D2E/DX2                !
 ! D40   D(8,4,5,9)              0.1146         estimate D2E/DX2                !
 ! D41   D(4,5,6,3)              0.1416         estimate D2E/DX2                !
 ! D42   D(4,5,6,10)           179.143          estimate D2E/DX2                !
 ! D43   D(9,5,6,3)           -179.2965         estimate D2E/DX2                !
 ! D44   D(9,5,6,10)            -0.2951         estimate D2E/DX2                !
 ! D45   D(2,7,12,19)          -71.2578         estimate D2E/DX2                !
 ! D46   D(2,7,12,21)          165.3101         estimate D2E/DX2                !
 ! D47   D(13,7,12,19)          54.3409         estimate D2E/DX2                !
 ! D48   D(13,7,12,21)         -69.0912         estimate D2E/DX2                !
 ! D49   D(14,7,12,19)         171.7303         estimate D2E/DX2                !
 ! D50   D(14,7,12,21)          48.2982         estimate D2E/DX2                !
 ! D51   D(3,11,16,18)          34.9637         estimate D2E/DX2                !
 ! D52   D(3,11,16,20)         159.7164         estimate D2E/DX2                !
 ! D53   D(3,11,16,22)         -85.0076         estimate D2E/DX2                !
 ! D54   D(15,11,16,18)        -77.3086         estimate D2E/DX2                !
 ! D55   D(15,11,16,20)         47.4441         estimate D2E/DX2                !
 ! D56   D(15,11,16,22)        162.7201         estimate D2E/DX2                !
 ! D57   D(17,11,16,18)        163.9604         estimate D2E/DX2                !
 ! D58   D(17,11,16,20)        -71.2869         estimate D2E/DX2                !
 ! D59   D(17,11,16,22)         43.9891         estimate D2E/DX2                !
 ! D60   D(7,12,19,30)          68.3541         estimate D2E/DX2                !
 ! D61   D(7,12,19,31)         -58.4188         estimate D2E/DX2                !
 ! D62   D(7,12,19,32)         178.6637         estimate D2E/DX2                !
 ! D63   D(21,12,19,30)       -171.4957         estimate D2E/DX2                !
 ! D64   D(21,12,19,31)         61.7314         estimate D2E/DX2                !
 ! D65   D(21,12,19,32)        -61.1861         estimate D2E/DX2                !
 ! D66   D(7,12,21,33)         -64.7595         estimate D2E/DX2                !
 ! D67   D(7,12,21,34)         174.0736         estimate D2E/DX2                !
 ! D68   D(7,12,21,35)          50.5843         estimate D2E/DX2                !
 ! D69   D(19,12,21,33)        172.6988         estimate D2E/DX2                !
 ! D70   D(19,12,21,34)         51.5319         estimate D2E/DX2                !
 ! D71   D(19,12,21,35)        -71.9573         estimate D2E/DX2                !
 ! D72   D(11,16,18,1)         -26.8723         estimate D2E/DX2                !
 ! D73   D(11,16,18,29)       -118.488          estimate D2E/DX2                !
 ! D74   D(11,16,18,36)         60.9734         estimate D2E/DX2                !
 ! D75   D(11,16,18,37)        156.1128         estimate D2E/DX2                !
 ! D76   D(20,16,18,1)        -136.8703         estimate D2E/DX2                !
 ! D77   D(20,16,18,29)        131.514          estimate D2E/DX2                !
 ! D78   D(20,16,18,36)        -49.0246         estimate D2E/DX2                !
 ! D79   D(20,16,18,37)         46.1147         estimate D2E/DX2                !
 ! D80   D(22,16,18,1)          84.3274         estimate D2E/DX2                !
 ! D81   D(22,16,18,29)         -7.2883         estimate D2E/DX2                !
 ! D82   D(22,16,18,36)        172.1731         estimate D2E/DX2                !
 ! D83   D(22,16,18,37)        -92.6876         estimate D2E/DX2                !
 ! D84   D(11,16,20,23)        -81.0527         estimate D2E/DX2                !
 ! D85   D(11,16,20,24)        161.483          estimate D2E/DX2                !
 ! D86   D(11,16,20,25)         37.9189         estimate D2E/DX2                !
 ! D87   D(18,16,20,23)         25.927          estimate D2E/DX2                !
 ! D88   D(18,16,20,24)        -91.5373         estimate D2E/DX2                !
 ! D89   D(18,16,20,25)        144.8986         estimate D2E/DX2                !
 ! D90   D(22,16,20,23)        167.0326         estimate D2E/DX2                !
 ! D91   D(22,16,20,24)         49.5683         estimate D2E/DX2                !
 ! D92   D(22,16,20,25)        -73.9958         estimate D2E/DX2                !
 ! D93   D(11,16,22,26)         52.1022         estimate D2E/DX2                !
 ! D94   D(11,16,22,27)        -67.9229         estimate D2E/DX2                !
 ! D95   D(11,16,22,28)        168.2507         estimate D2E/DX2                !
 ! D96   D(18,16,22,26)        -54.2901         estimate D2E/DX2                !
 ! D97   D(18,16,22,27)       -174.3152         estimate D2E/DX2                !
 ! D98   D(18,16,22,28)         61.8584         estimate D2E/DX2                !
 ! D99   D(20,16,22,26)        162.3904         estimate D2E/DX2                !
 ! D100  D(20,16,22,27)         42.3653         estimate D2E/DX2                !
 ! D101  D(20,16,22,28)        -81.4611         estimate D2E/DX2                !
 ! D102  D(16,18,37,38)         86.2134         estimate D2E/DX2                !
 ! D103  D(29,18,37,38)         -5.841          estimate D2E/DX2                !
 ! D104  D(36,18,37,38)        175.7184         estimate D2E/DX2                !
 ! D105  D(12,19,31,42)       -176.3472         estimate D2E/DX2                !
 ! D106  D(12,19,31,43)         65.5906         estimate D2E/DX2                !
 ! D107  D(12,19,31,44)        -57.6065         estimate D2E/DX2                !
 ! D108  D(30,19,31,42)         60.0014         estimate D2E/DX2                !
 ! D109  D(30,19,31,43)        -58.0609         estimate D2E/DX2                !
 ! D110  D(30,19,31,44)        178.742          estimate D2E/DX2                !
 ! D111  D(32,19,31,42)        -55.4268         estimate D2E/DX2                !
 ! D112  D(32,19,31,43)       -173.489          estimate D2E/DX2                !
 ! D113  D(32,19,31,44)         63.3139         estimate D2E/DX2                !
 ! D114  D(16,20,23,45)        170.3075         estimate D2E/DX2                !
 ! D115  D(16,20,23,46)         48.6404         estimate D2E/DX2                !
 ! D116  D(16,20,23,47)        -71.038          estimate D2E/DX2                !
 ! D117  D(24,20,23,45)        -70.3918         estimate D2E/DX2                !
 ! D118  D(24,20,23,46)        167.9411         estimate D2E/DX2                !
 ! D119  D(24,20,23,47)         48.2627         estimate D2E/DX2                !
 ! D120  D(25,20,23,45)         48.6373         estimate D2E/DX2                !
 ! D121  D(25,20,23,46)        -73.0298         estimate D2E/DX2                !
 ! D122  D(25,20,23,47)        167.2918         estimate D2E/DX2                !
 ! D123  D(16,20,24,48)        170.2625         estimate D2E/DX2                !
 ! D124  D(16,20,24,49)         52.2251         estimate D2E/DX2                !
 ! D125  D(16,20,24,50)        -70.8592         estimate D2E/DX2                !
 ! D126  D(23,20,24,48)         53.1399         estimate D2E/DX2                !
 ! D127  D(23,20,24,49)        -64.8975         estimate D2E/DX2                !
 ! D128  D(23,20,24,50)        172.0182         estimate D2E/DX2                !
 ! D129  D(25,20,24,48)        -64.7574         estimate D2E/DX2                !
 ! D130  D(25,20,24,49)        177.2052         estimate D2E/DX2                !
 ! D131  D(25,20,24,50)         54.1209         estimate D2E/DX2                !
 ! D132  D(16,20,25,51)        178.1612         estimate D2E/DX2                !
 ! D133  D(16,20,25,52)         58.7863         estimate D2E/DX2                !
 ! D134  D(16,20,25,53)        -64.2529         estimate D2E/DX2                !
 ! D135  D(23,20,25,51)        -63.4264         estimate D2E/DX2                !
 ! D136  D(23,20,25,52)        177.1987         estimate D2E/DX2                !
 ! D137  D(23,20,25,53)         54.1595         estimate D2E/DX2                !
 ! D138  D(24,20,25,51)         54.2245         estimate D2E/DX2                !
 ! D139  D(24,20,25,52)        -65.1504         estimate D2E/DX2                !
 ! D140  D(24,20,25,53)        171.8103         estimate D2E/DX2                !
 ! D141  D(12,21,34,39)         51.2916         estimate D2E/DX2                !
 ! D142  D(12,21,34,40)        -70.9533         estimate D2E/DX2                !
 ! D143  D(12,21,34,41)        170.0518         estimate D2E/DX2                !
 ! D144  D(33,21,34,39)        -67.622          estimate D2E/DX2                !
 ! D145  D(33,21,34,40)        170.133          estimate D2E/DX2                !
 ! D146  D(33,21,34,41)         51.1381         estimate D2E/DX2                !
 ! D147  D(35,21,34,39)        174.7538         estimate D2E/DX2                !
 ! D148  D(35,21,34,40)         52.5089         estimate D2E/DX2                !
 ! D149  D(35,21,34,41)        -66.4861         estimate D2E/DX2                !
 ! D150  D(16,22,26,60)        172.8811         estimate D2E/DX2                !
 ! D151  D(16,22,26,61)         53.8344         estimate D2E/DX2                !
 ! D152  D(16,22,26,62)        -68.5485         estimate D2E/DX2                !
 ! D153  D(27,22,26,60)        -63.2326         estimate D2E/DX2                !
 ! D154  D(27,22,26,61)        177.7207         estimate D2E/DX2                !
 ! D155  D(27,22,26,62)         55.3377         estimate D2E/DX2                !
 ! D156  D(28,22,26,60)         56.1272         estimate D2E/DX2                !
 ! D157  D(28,22,26,61)        -62.9195         estimate D2E/DX2                !
 ! D158  D(28,22,26,62)        174.6975         estimate D2E/DX2                !
 ! D159  D(16,22,27,54)        -66.9413         estimate D2E/DX2                !
 ! D160  D(16,22,27,55)        174.2921         estimate D2E/DX2                !
 ! D161  D(16,22,27,56)         55.8885         estimate D2E/DX2                !
 ! D162  D(26,22,27,54)        173.7225         estimate D2E/DX2                !
 ! D163  D(26,22,27,55)         54.9559         estimate D2E/DX2                !
 ! D164  D(26,22,27,56)        -63.4477         estimate D2E/DX2                !
 ! D165  D(28,22,27,54)         55.9948         estimate D2E/DX2                !
 ! D166  D(28,22,27,55)        -62.7719         estimate D2E/DX2                !
 ! D167  D(28,22,27,56)        178.8245         estimate D2E/DX2                !
 ! D168  D(16,22,28,57)         67.8602         estimate D2E/DX2                !
 ! D169  D(16,22,28,58)        -53.6507         estimate D2E/DX2                !
 ! D170  D(16,22,28,59)       -172.7359         estimate D2E/DX2                !
 ! D171  D(26,22,28,57)       -176.4411         estimate D2E/DX2                !
 ! D172  D(26,22,28,58)         62.0481         estimate D2E/DX2                !
 ! D173  D(26,22,28,59)        -57.0371         estimate D2E/DX2                !
 ! D174  D(27,22,28,57)        -58.3845         estimate D2E/DX2                !
 ! D175  D(27,22,28,58)       -179.8954         estimate D2E/DX2                !
 ! D176  D(27,22,28,59)         61.0194         estimate D2E/DX2                !
 --------------------------------------------------------------------------------
 Trust Radius=3.00D-01 FncErr=1.00D-07 GrdErr=1.00D-06 EigMax=2.50D+02 EigMin=1.00D-04
 Number of steps in this run=    376 maximum allowed number of steps=    378.
 GradGradGradGradGradGradGradGradGradGradGradGradGradGradGradGradGradGrad

 Stoichiometry    C20H37N2O2PRu
 Framework group  C1[X(C20H37N2O2PRu)]
 Deg. of freedom   183
 Full point group                 C1      NOp   1
 Largest Abelian subgroup         C1      NOp   1
 Largest concise Abelian subgroup C1      NOp   1
                         Standard orientation:                         
 ---------------------------------------------------------------------
 Center     Atomic      Atomic             Coordinates (Angstroms)
 Number     Number       Type             X           Y           Z
 ---------------------------------------------------------------------
      1          7           0        0.732166    1.407826    0.068831
      2          6           0        1.939954    1.887440   -0.257160
      3          6           0       -0.184822    2.173447    0.682493
      4          6           0        2.288943    3.206045    0.012579
      5          6           0        1.342645    4.029000    0.620511
      6          6           0        0.095645    3.513104    0.957861
      7          6           0        2.804300    0.901417   -0.983555
      8          1           0        3.278551    3.579612   -0.253287
      9          1           0        1.581559    5.071650    0.839683
     10          1           0       -0.654656    4.135799    1.446805
     11          6           0       -1.460139    1.491409    1.071825
     12          7           0        2.685381   -0.464003   -0.428671
     13          1           0        3.853262    1.244015   -1.015555
     14          1           0        2.437124    0.846964   -2.021850
     15          1           0       -1.268402    1.038784    2.061765
     16         15           0       -1.767234   -0.019427    0.006280
     17          1           0       -2.299405    2.198033    1.146656
     18         44           0        0.398647   -0.648679   -0.227219
     19          6           0        3.333708   -0.561065    0.903106
     20          6           0       -2.997353   -1.039203    1.055732
     21          6           0        3.280709   -1.389910   -1.422706
     22          6           0       -2.636031    0.636329   -1.566102
     23          6           0       -2.179355   -1.798557    2.107869
     24          6           0       -3.722150   -2.073049    0.187971
     25          6           0       -4.017835   -0.157832    1.784955
     26          6           0       -1.770838    1.776944   -2.115883
     27          6           0       -4.048086    1.175013   -1.331150
     28          6           0       -2.659753   -0.480383   -2.615766
     29          1           0        0.380565   -0.473447   -1.841859
     30          1           0        2.723601    0.042381    1.590765
     31          6           0        4.813665   -0.212353    0.973372
     32          1           0        3.175743   -1.592290    1.244184
     33          1           0        2.639177   -1.322793   -2.313303
     34          6           0        3.380115   -2.831744   -0.970544
     35          1           0        4.286545   -1.023499   -1.710432
     36          6           0        0.468429   -0.842521    1.587275
     37          8           0        0.398219   -2.767767   -0.663131
     38          1           0        0.294845   -2.880350   -1.614837
     39          1           0        2.416480   -3.197346   -0.590480
     40          1           0        4.143311   -2.981217   -0.192512
     41          1           0        3.662464   -3.456490   -1.830982
     42          1           0        5.164930   -0.393343    2.000704
     43          1           0        5.018664    0.846240    0.751423
     44          1           0        5.436171   -0.826937    0.303876
     45          1           0       -2.876023   -2.253911    2.832311
     46          1           0       -1.466921   -1.147260    2.634321
     47          1           0       -1.593408   -2.604948    1.644859
     48          1           0       -4.285057   -2.751745    0.851026
     49          1           0       -3.014952   -2.689586   -0.387114
     50          1           0       -4.444500   -1.623665   -0.508001
     51          1           0       -4.712838   -0.809685    2.341331
     52          1           0       -4.620999    0.464514    1.111465
     53          1           0       -3.535422    0.497612    2.524816
     54          1           0       -4.761151    0.391695   -1.039964
     55          1           0       -4.420737    1.620197   -2.269514
     56          1           0       -4.072506    1.966711   -0.565954
     57          1           0       -3.310690   -1.317266   -2.331051
     58          1           0       -1.645948   -0.871470   -2.785907
     59          1           0       -3.039971   -0.071790   -3.567481
     60          1           0       -2.178350    2.089295   -3.092073
     61          1           0       -0.731697    1.448504   -2.263769
     62          1           0       -1.776549    2.661934   -1.460927
     63          8           0        0.455769   -0.988431    2.745267
 ---------------------------------------------------------------------
 Rotational constants (GHZ):           0.2575938           0.1588901           0.1338981
 General basis read from cards:  (5D, 7F)
 ======================================================================================================
                                       Pseudopotential Parameters
 ======================================================================================================
  Center     Atomic      Valence      Angular      Power
  Number     Number     Electrons     Momentum     of R      Exponent        Coefficient   SO-Coeffient
 ======================================================================================================
    1          7
                                   No pseudopotential on this center.
    2          6
                                   No pseudopotential on this center.
    3          6
                                   No pseudopotential on this center.
    4          6
                                   No pseudopotential on this center.
    5          6
                                   No pseudopotential on this center.
    6          6
                                   No pseudopotential on this center.
    7          6
                                   No pseudopotential on this center.
    8          1
                                   No pseudopotential on this center.
    9          1
                                   No pseudopotential on this center.
   10          1
                                   No pseudopotential on this center.
   11          6
                                   No pseudopotential on this center.
   12          7
                                   No pseudopotential on this center.
   13          1
                                   No pseudopotential on this center.
   14          1
                                   No pseudopotential on this center.
   15          1
                                   No pseudopotential on this center.
   16         15
                                   No pseudopotential on this center.
   17          1
                                   No pseudopotential on this center.
   18         44           16
                                      G and up 
                                                     2        1.0000000        0.00000000    0.00000000
                                      S - G
                                                     2       11.1052690      209.82297100    0.00000000
                                                     2        5.4147450       30.65472600    0.00000000
                                      P - G
                                                     2        9.7712710      146.33618200    0.00000000
                                                     2        5.0739910       24.12787700    0.00000000
                                      D - G
                                                     2        7.6714230       67.51589700    0.00000000
                                                     2        4.1365650        9.87010400    0.00000000
                                      F - G
                                                     2       11.3600000      -28.34061600    0.00000000
                                                     2        5.6800000       -4.94462900    0.00000000
   19          6
                                   No pseudopotential on this center.
   20          6
                                   No pseudopotential on this center.
   21          6
                                   No pseudopotential on this center.
   22          6
                                   No pseudopotential on this center.
   23          6
                                   No pseudopotential on this center.
   24          6
                                   No pseudopotential on this center.
   25          6
                                   No pseudopotential on this center.
   26          6
                                   No pseudopotential on this center.
   27          6
                                   No pseudopotential on this center.
   28          6
                                   No pseudopotential on this center.
   29          1
                                   No pseudopotential on this center.
   30          1
                                   No pseudopotential on this center.
   31          6
                                   No pseudopotential on this center.
   32          1
                                   No pseudopotential on this center.
   33          1
                                   No pseudopotential on this center.
   34          6
                                   No pseudopotential on this center.
   35          1
                                   No pseudopotential on this center.
   36          6
                                   No pseudopotential on this center.
   37          8
                                   No pseudopotential on this center.
   38          1
                                   No pseudopotential on this center.
   39          1
                                   No pseudopotential on this center.
   40          1
                                   No pseudopotential on this center.
   41          1
                                   No pseudopotential on this center.
   42          1
                                   No pseudopotential on this center.
   43          1
                                   No pseudopotential on this center.
   44          1
                                   No pseudopotential on this center.
   45          1
                                   No pseudopotential on this center.
   46          1
                                   No pseudopotential on this center.
   47          1
                                   No pseudopotential on this center.
   48          1
                                   No pseudopotential on this center.
   49          1
                                   No pseudopotential on this center.
   50          1
                                   No pseudopotential on this center.
   51          1
                                   No pseudopotential on this center.
   52          1
                                   No pseudopotential on this center.
   53          1
                                   No pseudopotential on this center.
   54          1
                                   No pseudopotential on this center.
   55          1
                                   No pseudopotential on this center.
   56          1
                                   No pseudopotential on this center.
   57          1
                                   No pseudopotential on this center.
   58          1
                                   No pseudopotential on this center.
   59          1
                                   No pseudopotential on this center.
   60          1
                                   No pseudopotential on this center.
   61          1
                                   No pseudopotential on this center.
   62          1
                                   No pseudopotential on this center.
   63          8
                                   No pseudopotential on this center.
 ======================================================================================================
 There are   603 symmetry adapted cartesian basis functions of A   symmetry.
 There are   575 symmetry adapted basis functions of A   symmetry.
   575 basis functions,  1187 primitive gaussians,   603 cartesian basis functions
   109 alpha electrons      109 beta electrons
       nuclear repulsion energy      3245.9697529794 Hartrees.
 NAtoms=   63 NActive=   63 NUniq=   63 SFac= 1.00D+00 NAtFMM=   60 NAOKFM=T Big=T
 Integral buffers will be    131072 words long.
 Raffenetti 2 integral format.
 Two-electron integral symmetry is turned on.
 Nuclear repulsion after empirical dispersion term =     3245.8760935304 Hartrees.
 One-electron integrals computed using PRISM.
   1 Symmetry operations used in ECPInt.
 ECPInt:  NShTT=   38503 NPrTT=  265225 LenC2=   35788 LenP2D=  136065.
 LDataN:  DoStor=T MaxTD1= 6 Len=  172
 Number of processors reduced to  16 by ecpmxn.
 NBasis=   575 RedAO= T EigKep=  4.37D-04  NBF=   575
 NBsUse=   575 1.00D-06 EigRej= -1.00D+00 NBFU=   575
 Defaulting to unpruned grid for atomic number  44.
 ExpMin= 1.60D-02 ExpMax= 9.48D+04 ExpMxC= 3.24D+03 IAcc=3 IRadAn=         5 AccDes= 0.00D+00
 Harris functional with IExCor= 1009 and IRadAn=       5 diagonalized for initial guess.
 HarFok:  IExCor= 1009 AccDes= 0.00D+00 IRadAn=         5 IDoV= 1 UseB2=F ITyADJ=14
 ICtDFT=  3500011 ScaDFX=  1.000000  1.000000  1.000000  1.000000
 Defaulting to unpruned grid for atomic number  44.
 FoFCou: FMM=F IPFlag=           0 FMFlag=      100000 FMFlg1=        2001
         NFxFlg=           0 DoJE=T BraDBF=F KetDBF=T FulRan=T
         wScrn=  0.000000 ICntrl=       500 IOpCl=  0 I1Cent=   200000004 NGrid=           0
         NMat0=    1 NMatS0=      1 NMatT0=    0 NMatD0=    1 NMtDS0=    0 NMtDT0=    0
 Petite list used in FoFCou.
 Requested convergence on RMS density matrix=1.00D-08 within 128 cycles.
 Requested convergence on MAX density matrix=1.00D-06.
 Requested convergence on             energy=1.00D-06.
 No special actions if energy rises.
 Defaulting to unpruned grid for atomic number  44.
 Defaulting to unpruned grid for atomic number  44.
 Defaulting to unpruned grid for atomic number  44.
 Defaulting to unpruned grid for atomic number  44.
 Defaulting to unpruned grid for atomic number  44.
 Defaulting to unpruned grid for atomic number  44.
 Defaulting to unpruned grid for atomic number  44.
 Defaulting to unpruned grid for atomic number  44.
 Defaulting to unpruned grid for atomic number  44.
 Defaulting to unpruned grid for atomic number  44.
 Defaulting to unpruned grid for atomic number  44.
 Defaulting to unpruned grid for atomic number  44.
 Defaulting to unpruned grid for atomic number  44.
 Defaulting to unpruned grid for atomic number  44.
 Defaulting to unpruned grid for atomic number  44.
 Defaulting to unpruned grid for atomic number  44.
 Defaulting to unpruned grid for atomic number  44.
 Defaulting to unpruned grid for atomic number  44.
 Defaulting to unpruned grid for atomic number  44.
 Defaulting to unpruned grid for atomic number  44.
 EnCoef did     2 forward-backward iterations
 SCF Done:  E(RPBE1PBE) =  -1479.44897651     A.U. after   18 cycles
            NFock= 18  Conv=0.28D-08     -V/T= 2.0489

 **********************************************************************

            Population analysis using the SCF density.

 **********************************************************************

 Orbital symmetries:
       Occupied  (A) (A) (A) (A) (A) (A) (A) (A) (A) (A) (A) (A)
                 (A) (A) (A) (A) (A) (A) (A) (A) (A) (A) (A) (A)
                 (A) (A) (A) (A) (A) (A) (A) (A) (A) (A) (A) (A)
                 (A) (A) (A) (A) (A) (A) (A) (A) (A) (A) (A) (A)
                 (A) (A) (A) (A) (A) (A) (A) (A) (A) (A) (A) (A)
                 (A) (A) (A) (A) (A) (A) (A) (A) (A) (A) (A) (A)
                 (A) (A) (A) (A) (A) (A) (A) (A) (A) (A) (A) (A)
                 (A) (A) (A) (A) (A) (A) (A) (A) (A) (A) (A) (A)
                 (A) (A) (A) (A) (A) (A) (A) (A) (A) (A) (A) (A)
                 (A)
       Virtual   (A) (A) (A) (A) (A) (A) (A) (A) (A) (A) (A) (A)
                 (A) (A) (A) (A) (A) (A) (A) (A) (A) (A) (A) (A)
                 (A) (A) (A) (A) (A) (A) (A) (A) (A) (A) (A) (A)
                 (A) (A) (A) (A) (A) (A) (A) (A) (A) (A) (A) (A)
                 (A) (A) (A) (A) (A) (A) (A) (A) (A) (A) (A) (A)
                 (A) (A) (A) (A) (A) (A) (A) (A) (A) (A) (A) (A)
                 (A) (A) (A) (A) (A) (A) (A) (A) (A) (A) (A) (A)
                 (A) (A) (A) (A) (A) (A) (A) (A) (A) (A) (A) (A)
                 (A) (A) (A) (A) (A) (A) (A) (A) (A) (A) (A) (A)
                 (A) (A) (A) (A) (A) (A) (A) (A) (A) (A) (A) (A)
                 (A) (A) (A) (A) (A) (A) (A) (A) (A) (A) (A) (A)
                 (A) (A) (A) (A) (A) (A) (A) (A) (A) (A) (A) (A)
                 (A) (A) (A) (A) (A) (A) (A) (A) (A) (A) (A) (A)
                 (A) (A) (A) (A) (A) (A) (A) (A) (A) (A) (A) (A)
                 (A) (A) (A) (A) (A) (A) (A) (A) (A) (A) (A) (A)
                 (A) (A) (A) (A) (A) (A) (A) (A) (A) (A) (A) (A)
                 (A) (A) (A) (A) (A) (A) (A) (A) (A) (A) (A) (A)
                 (A) (A) (A) (A) (A) (A) (A) (A) (A) (A) (A) (A)
                 (A) (A) (A) (A) (A) (A) (A) (A) (A) (A) (A) (A)
                 (A) (A) (A) (A) (A) (A) (A) (A) (A) (A) (A) (A)
                 (A) (A) (A) (A) (A) (A) (A) (A) (A) (A) (A) (A)
                 (A) (A) (A) (A) (A) (A) (A) (A) (A) (A) (A) (A)
                 (A) (A) (A) (A) (A) (A) (A) (A) (A) (A) (A) (A)
                 (A) (A) (A) (A) (A) (A) (A) (A) (A) (A) (A) (A)
                 (A) (A) (A) (A) (A) (A) (A) (A) (A) (A) (A) (A)
                 (A) (A) (A) (A) (A) (A) (A) (A) (A) (A) (A) (A)
                 (A) (A) (A) (A) (A) (A) (A) (A) (A) (A) (A) (A)
                 (A) (A) (A) (A) (A) (A) (A) (A) (A) (A) (A) (A)
                 (A) (A) (A) (A) (A) (A) (A) (A) (A) (A) (A) (A)
                 (A) (A) (A) (A) (A) (A) (A) (A) (A) (A) (A) (A)
                 (A) (A) (A) (A) (A) (A) (A) (A) (A) (A) (A) (A)
                 (A) (A) (A) (A) (A) (A) (A) (A) (A) (A) (A) (A)
                 (A) (A) (A) (A) (A) (A) (A) (A) (A) (A) (A) (A)
                 (A) (A) (A) (A) (A) (A) (A) (A) (A) (A) (A) (A)
                 (A) (A) (A) (A) (A) (A) (A) (A) (A) (A) (A) (A)
                 (A) (A) (A) (A) (A) (A) (A) (A) (A) (A) (A) (A)
                 (A) (A) (A) (A) (A) (A) (A) (A) (A) (A) (A) (A)
                 (A) (A) (A) (A) (A) (A) (A) (A) (A) (A) (A) (A)
                 (A) (A) (A) (A) (A) (A) (A) (A) (A) (A)
 The electronic state is 1-A.
 Alpha  occ. eigenvalues --  -77.25495 -19.24281 -19.10401 -14.45431 -14.43658
 Alpha  occ. eigenvalues --  -10.30860 -10.30387 -10.29626 -10.28047 -10.27762
 Alpha  occ. eigenvalues --  -10.26926 -10.26843 -10.26173 -10.26032 -10.25680
 Alpha  occ. eigenvalues --  -10.25421 -10.25253 -10.23455 -10.23173 -10.22730
 Alpha  occ. eigenvalues --  -10.22181 -10.22013 -10.21415 -10.20309 -10.19597
 Alpha  occ. eigenvalues --   -6.63347  -4.77021  -4.76909  -4.76643  -3.01918
 Alpha  occ. eigenvalues --   -1.85598  -1.84890  -1.84348  -1.11017  -1.02218
 Alpha  occ. eigenvalues --   -0.97173  -0.86889  -0.85962  -0.85551  -0.84268
 Alpha  occ. eigenvalues --   -0.82830  -0.78533  -0.77586  -0.75241  -0.71566
 Alpha  occ. eigenvalues --   -0.71094  -0.70495  -0.69776  -0.69242  -0.67122
 Alpha  occ. eigenvalues --   -0.67044  -0.63934  -0.62879  -0.58223  -0.56272
 Alpha  occ. eigenvalues --   -0.55360  -0.54934  -0.54280  -0.52708  -0.51442
 Alpha  occ. eigenvalues --   -0.50791  -0.49654  -0.48910  -0.47158  -0.46584
 Alpha  occ. eigenvalues --   -0.46212  -0.45676  -0.45250  -0.44973  -0.44774
 Alpha  occ. eigenvalues --   -0.44592  -0.44082  -0.43618  -0.43102  -0.42845
 Alpha  occ. eigenvalues --   -0.42278  -0.41939  -0.41491  -0.40601  -0.40332
 Alpha  occ. eigenvalues --   -0.39896  -0.39118  -0.38441  -0.38389  -0.37561
 Alpha  occ. eigenvalues --   -0.37530  -0.36903  -0.36525  -0.36272  -0.35497
 Alpha  occ. eigenvalues --   -0.35280  -0.35058  -0.34738  -0.34412  -0.33894
 Alpha  occ. eigenvalues --   -0.33653  -0.33491  -0.32842  -0.32579  -0.31294
 Alpha  occ. eigenvalues --   -0.29864  -0.28471  -0.27161  -0.24885  -0.23306
 Alpha  occ. eigenvalues --   -0.23103  -0.23008  -0.20140  -0.16425
 Alpha virt. eigenvalues --   -0.05012  -0.03468   0.00263   0.01000   0.02593
 Alpha virt. eigenvalues --    0.03099   0.03819   0.03904   0.04903   0.06435
 Alpha virt. eigenvalues --    0.07123   0.07711   0.07824   0.08348   0.08852
 Alpha virt. eigenvalues --    0.09255   0.09872   0.10107   0.10486   0.10799
 Alpha virt. eigenvalues --    0.11648   0.12156   0.12339   0.12519   0.12656
 Alpha virt. eigenvalues --    0.13199   0.13646   0.13805   0.14485   0.14916
 Alpha virt. eigenvalues --    0.15306   0.15549   0.15769   0.16056   0.17088
 Alpha virt. eigenvalues --    0.17445   0.17542   0.17993   0.18111   0.18629
 Alpha virt. eigenvalues --    0.19020   0.19294   0.19585   0.19940   0.20139
 Alpha virt. eigenvalues --    0.20510   0.20777   0.21151   0.21317   0.22068
 Alpha virt. eigenvalues --    0.22547   0.22708   0.22988   0.23266   0.23366
 Alpha virt. eigenvalues --    0.23920   0.24510   0.25082   0.25873   0.26174
 Alpha virt. eigenvalues --    0.26663   0.26785   0.28164   0.29237   0.29519
 Alpha virt. eigenvalues --    0.29707   0.30252   0.30770   0.31813   0.32226
 Alpha virt. eigenvalues --    0.33435   0.33774   0.34288   0.35529   0.36351
 Alpha virt. eigenvalues --    0.36947   0.38614   0.39842   0.41511   0.41662
 Alpha virt. eigenvalues --    0.42033   0.42417   0.43276   0.43712   0.44264
 Alpha virt. eigenvalues --    0.44991   0.46034   0.46198   0.46779   0.47321
 Alpha virt. eigenvalues --    0.47750   0.48421   0.49391   0.49808   0.49978
 Alpha virt. eigenvalues --    0.50920   0.51925   0.52267   0.53074   0.53913
 Alpha virt. eigenvalues --    0.54176   0.54863   0.55262   0.55738   0.56368
 Alpha virt. eigenvalues --    0.56925   0.57687   0.58083   0.59071   0.59349
 Alpha virt. eigenvalues --    0.59533   0.59854   0.60253   0.60970   0.61211
 Alpha virt. eigenvalues --    0.61955   0.62308   0.62871   0.63080   0.63559
 Alpha virt. eigenvalues --    0.63808   0.64331   0.64408   0.64659   0.65190
 Alpha virt. eigenvalues --    0.65382   0.65675   0.65829   0.66364   0.66707
 Alpha virt. eigenvalues --    0.67021   0.67059   0.67282   0.67894   0.68110
 Alpha virt. eigenvalues --    0.68334   0.68848   0.69300   0.69492   0.69977
 Alpha virt. eigenvalues --    0.70200   0.70455   0.71081   0.71448   0.71493
 Alpha virt. eigenvalues --    0.72050   0.72927   0.73425   0.73919   0.74256
 Alpha virt. eigenvalues --    0.74488   0.74924   0.75319   0.75488   0.76116
 Alpha virt. eigenvalues --    0.76376   0.77022   0.77227   0.77913   0.78437
 Alpha virt. eigenvalues --    0.78864   0.79462   0.79962   0.80043   0.81225
 Alpha virt. eigenvalues --    0.81698   0.82314   0.82582   0.83331   0.83564
 Alpha virt. eigenvalues --    0.84255   0.84654   0.85818   0.86419   0.87276
 Alpha virt. eigenvalues --    0.87603   0.88405   0.88698   0.89617   0.90375
 Alpha virt. eigenvalues --    0.90585   0.90948   0.91933   0.92062   0.93088
 Alpha virt. eigenvalues --    0.93491   0.93922   0.95114   0.95752   0.96377
 Alpha virt. eigenvalues --    0.97042   0.98186   0.98413   0.99170   1.00037
 Alpha virt. eigenvalues --    1.00696   1.01378   1.02275   1.03349   1.03785
 Alpha virt. eigenvalues --    1.05793   1.06268   1.06592   1.08436   1.08950
 Alpha virt. eigenvalues --    1.09262   1.10721   1.11913   1.12390   1.13010
 Alpha virt. eigenvalues --    1.13753   1.14557   1.16047   1.17159   1.17253
 Alpha virt. eigenvalues --    1.18272   1.19253   1.21161   1.23595   1.24344
 Alpha virt. eigenvalues --    1.25234   1.25555   1.26202   1.26811   1.27211
 Alpha virt. eigenvalues --    1.28164   1.29016   1.31295   1.31484   1.31688
 Alpha virt. eigenvalues --    1.32797   1.33021   1.33808   1.34233   1.34933
 Alpha virt. eigenvalues --    1.35958   1.36383   1.37042   1.37973   1.38643
 Alpha virt. eigenvalues --    1.38925   1.39751   1.40626   1.40794   1.41764
 Alpha virt. eigenvalues --    1.42602   1.42942   1.43175   1.44106   1.44325
 Alpha virt. eigenvalues --    1.44822   1.45288   1.45580   1.46345   1.46883
 Alpha virt. eigenvalues --    1.47350   1.47711   1.48630   1.49435   1.50221
 Alpha virt. eigenvalues --    1.50949   1.51325   1.52418   1.52817   1.53219
 Alpha virt. eigenvalues --    1.53664   1.54072   1.54605   1.55669   1.55876
 Alpha virt. eigenvalues --    1.56020   1.56571   1.59205   1.59249   1.59736
 Alpha virt. eigenvalues --    1.60886   1.61168   1.61502   1.61986   1.62569
 Alpha virt. eigenvalues --    1.63008   1.63109   1.64232   1.64339   1.65087
 Alpha virt. eigenvalues --    1.65702   1.66339   1.66488   1.66816   1.67053
 Alpha virt. eigenvalues --    1.67244   1.68094   1.68952   1.69490   1.69909
 Alpha virt. eigenvalues --    1.70339   1.71172   1.71352   1.71637   1.71982
 Alpha virt. eigenvalues --    1.72378   1.72781   1.73684   1.74124   1.74290
 Alpha virt. eigenvalues --    1.74865   1.75270   1.75649   1.76524   1.76641
 Alpha virt. eigenvalues --    1.76906   1.77212   1.77675   1.78070   1.78906
 Alpha virt. eigenvalues --    1.79038   1.79314   1.80122   1.80352   1.80766
 Alpha virt. eigenvalues --    1.81343   1.81690   1.82149   1.82669   1.83529
 Alpha virt. eigenvalues --    1.84317   1.84469   1.84942   1.85753   1.86362
 Alpha virt. eigenvalues --    1.87038   1.87845   1.88447   1.89339   1.89567
 Alpha virt. eigenvalues --    1.90602   1.90875   1.91237   1.91657   1.92029
 Alpha virt. eigenvalues --    1.93371   1.94442   1.95065   1.95396   1.96317
 Alpha virt. eigenvalues --    1.97496   1.97697   1.98287   1.98660   1.99399
 Alpha virt. eigenvalues --    2.00683   2.01129   2.01427   2.01783   2.02714
 Alpha virt. eigenvalues --    2.03864   2.04329   2.04780   2.05203   2.05928
 Alpha virt. eigenvalues --    2.06759   2.07486   2.08089   2.08171   2.09084
 Alpha virt. eigenvalues --    2.09351   2.10417   2.11289   2.11583   2.12395
 Alpha virt. eigenvalues --    2.13943   2.14522   2.15154   2.16689   2.17784
 Alpha virt. eigenvalues --    2.18649   2.19812   2.20583   2.20849   2.22194
 Alpha virt. eigenvalues --    2.23298   2.24056   2.24877   2.25586   2.26144
 Alpha virt. eigenvalues --    2.26276   2.26442   2.27554   2.28640   2.29113
 Alpha virt. eigenvalues --    2.29383   2.30565   2.32208   2.34462   2.35957
 Alpha virt. eigenvalues --    2.37887   2.39042   2.39949   2.40656   2.41132
 Alpha virt. eigenvalues --    2.41666   2.42180   2.42678   2.43044   2.44072
 Alpha virt. eigenvalues --    2.44270   2.44849   2.45687   2.46324   2.46913
 Alpha virt. eigenvalues --    2.47442   2.48072   2.49314   2.49724   2.50024
 Alpha virt. eigenvalues --    2.50332   2.51913   2.51971   2.52452   2.52981
 Alpha virt. eigenvalues --    2.53434   2.54398   2.55080   2.55513   2.56059
 Alpha virt. eigenvalues --    2.56860   2.57520   2.57825   2.58523   2.59056
 Alpha virt. eigenvalues --    2.60031   2.61055   2.61245   2.62969   2.66023
 Alpha virt. eigenvalues --    2.66479   2.68142   2.68983   2.69476   2.70112
 Alpha virt. eigenvalues --    2.70633   2.71834   2.73008   2.73275   2.75314
 Alpha virt. eigenvalues --    2.77702   2.78908   2.79782   2.81772   2.83289
 Alpha virt. eigenvalues --    2.85188   2.85768   2.92647   3.00145   3.03407
 Alpha virt. eigenvalues --    3.07942   3.10716   3.14645   3.16038   3.49092
 Alpha virt. eigenvalues --    3.61019   3.86108  34.90794  34.96613  35.08078
 Alpha virt. eigenvalues --   45.98397
          Condensed to atoms (all electrons):
 Mulliken charges:
               1
     1  N   -0.295934
     2  C    0.046886
     3  C    0.083043
     4  C   -0.041222
     5  C    0.079677
     6  C   -0.044139
     7  C    0.119157
     8  H    0.007400
     9  H    0.021475
    10  H    0.009185
    11  C   -0.110813
    12  N   -0.382985
    13  H    0.034258
    14  H    0.112669
    15  H    0.118223
    16  P    0.185922
    17  H    0.061281
    18  Ru  -0.002001
    19  C   -0.038205
    20  C   -0.471072
    21  C    0.006924
    22  C   -0.457313
    23  C   -0.012282
    24  C   -0.011356
    25  C    0.009140
    26  C   -0.015768
    27  C    0.013851
    28  C   -0.009791
    29  H   -0.086277
    30  H    0.100103
    31  C   -0.067276
    32  H    0.094861
    33  H    0.099307
    34  C   -0.103609
    35  H    0.019881
    36  C   -0.095106
    37  O   -0.387628
    38  H    0.159404
    39  H    0.140745
    40  H    0.030114
    41  H    0.040212
    42  H    0.058924
    43  H    0.046142
    44  H    0.057933
    45  H    0.026685
    46  H    0.066086
    47  H    0.111598
    48  H    0.040214
    49  H    0.100861
    50  H    0.039777
    51  H    0.040891
    52  H    0.029852
    53  H    0.042052
    54  H    0.051239
    55  H    0.038986
    56  H    0.038443
    57  H    0.037622
    58  H    0.124503
    59  H    0.031744
    60  H    0.034771
    61  H    0.121503
    62  H    0.038094
    63  O   -0.138864
 Sum of Mulliken charges =  -0.00000
 Mulliken charges with hydrogens summed into heavy atoms:
               1
     1  N   -0.295934
     2  C    0.046886
     3  C    0.083043
     4  C   -0.033821
     5  C    0.101152
     6  C   -0.034954
     7  C    0.266084
    11  C    0.068692
    12  N   -0.382985
    16  P    0.185922
    18  Ru  -0.088278
    19  C    0.156759
    20  C   -0.471072
    21  C    0.126112
    22  C   -0.457313
    23  C    0.192087
    24  C    0.169497
    25  C    0.121934
    26  C    0.178601
    27  C    0.142519
    28  C    0.184078
    31  C    0.095722
    34  C    0.107462
    36  C   -0.095106
    37  O   -0.228224
    63  O   -0.138864
 Electronic spatial extent (au):  <R**2>=           9504.3534
 Charge=             -0.0000 electrons
 Dipole moment (field-independent basis, Debye):
    X=              0.6862    Y=              7.6648    Z=              0.0018  Tot=              7.6955
 Quadrupole moment (field-independent basis, Debye-Ang):
   XX=           -161.5675   YY=           -183.2988   ZZ=           -187.5139
   XY=              5.1142   XZ=             -2.6970   YZ=              3.9314
 Traceless Quadrupole moment (field-independent basis, Debye-Ang):
   XX=             15.8926   YY=             -5.8387   ZZ=            -10.0539
   XY=              5.1142   XZ=             -2.6970   YZ=              3.9314
 Octapole moment (field-independent basis, Debye-Ang**2):
  XXX=             60.8642  YYY=             53.9235  ZZZ=            -26.2968  XYY=             19.2870
  XXY=             -8.7240  XXZ=             -3.0741  XZZ=              4.8012  YZZ=            -15.0519
  YYZ=             12.2000  XYZ=             -0.8739
 Hexadecapole moment (field-independent basis, Debye-Ang**3):
 XXXX=          -7109.7392 YYYY=          -3488.4224 ZZZZ=          -2183.6715 XXXY=             38.0499
 XXXZ=              4.1793 YYYX=             83.6059 YYYZ=             95.6274 ZZZX=             -7.3673
 ZZZY=             28.2131 XXYY=          -1736.9594 XXZZ=          -1530.2068 YYZZ=           -944.2479
 XXYZ=            -27.4751 YYXZ=            -22.0796 ZZXY=            -25.8456
 N-N= 3.245876093530D+03 E-N=-9.926920383174D+03  KE= 1.410496587650D+03
   1 Symmetry operations used in ECPInt.
 ECPInt:  NShTT=   38503 NPrTT=  265225 LenC2=   35788 LenP2D=  136065.
 LDataN:  DoStor=T MaxTD1= 7 Len=  274
 Number of processors reduced to  17 by ecpmxn.
 Calling FoFJK, ICntrl=      2127 FMM=T ISym2X=0 I1Cent= 0 IOpClX= 0 NMat=1 NMatS=1 NMatT=0.
 Defaulting to unpruned grid for atomic number  44.
 Defaulting to unpruned grid for atomic number  44.
 Defaulting to unpruned grid for atomic number  44.
 Defaulting to unpruned grid for atomic number  44.
 Defaulting to unpruned grid for atomic number  44.
 Defaulting to unpruned grid for atomic number  44.
 Defaulting to unpruned grid for atomic number  44.
 Defaulting to unpruned grid for atomic number  44.
 Defaulting to unpruned grid for atomic number  44.
 Defaulting to unpruned grid for atomic number  44.
 Defaulting to unpruned grid for atomic number  44.
 Defaulting to unpruned grid for atomic number  44.
 Defaulting to unpruned grid for atomic number  44.
 Defaulting to unpruned grid for atomic number  44.
 Defaulting to unpruned grid for atomic number  44.
 Defaulting to unpruned grid for atomic number  44.
 Defaulting to unpruned grid for atomic number  44.
 Defaulting to unpruned grid for atomic number  44.
 Defaulting to unpruned grid for atomic number  44.
 Defaulting to unpruned grid for atomic number  44.
 ***** Axes restored to original set *****
 -------------------------------------------------------------------
 Center     Atomic                   Forces (Hartrees/Bohr)
 Number     Number              X              Y              Z
 -------------------------------------------------------------------
      1        7           0.005098948   -0.015451520    0.000105987
      2        6          -0.004590757   -0.000251586    0.003818887
      3        6           0.003142532    0.006737096    0.000507654
      4        6           0.001598580   -0.000923655   -0.000361662
      5        6          -0.000865227    0.001523002    0.000003618
      6        6           0.000437743   -0.001757354    0.000159237
      7        6           0.000526410   -0.000133015   -0.001783846
      8        1           0.000162036   -0.000443032    0.000018259
      9        1           0.000117677   -0.000249176    0.000032241
     10        1           0.000007381   -0.000336027    0.000116734
     11        6          -0.000978913    0.000732560    0.000810288
     12        7          -0.000805056   -0.000033938    0.005323969
     13        1           0.000246566    0.000069779   -0.000097145
     14        1           0.000567017   -0.000331127   -0.000434071
     15        1           0.004658805    0.002677463   -0.001110843
     16       15           0.002915036   -0.010603612    0.008299903
     17        1          -0.000535203   -0.000247800   -0.001524486
     18       44          -0.015077395    0.008664913    0.009638932
     19        6           0.002049966   -0.003923902    0.002345836
     20        6           0.002066984    0.000475672   -0.000539505
     21        6          -0.001665253   -0.003940105   -0.000280118
     22        6          -0.000567625    0.000858975   -0.000167519
     23        6           0.003976161    0.001183799    0.002687281
     24        6          -0.000949274    0.000348526    0.000813370
     25        6           0.000009848   -0.000228377    0.000470189
     26        6          -0.000275501   -0.000016426   -0.000710422
     27        6          -0.000421918   -0.000289981   -0.000579222
     28        6          -0.000272354   -0.000270169   -0.000788551
     29        1           0.002872344    0.001209969    0.018434195
     30        1          -0.005519853    0.004439241    0.000558512
     31        6           0.000618785    0.001802381   -0.002070510
     32        1          -0.000129758   -0.000833950    0.000963634
     33        1           0.000621655    0.000376586   -0.000730035
     34        6          -0.002815902   -0.001970008   -0.003291185
     35        1           0.000032512    0.001674395    0.000485132
     36        6           0.000704127   -0.026799774   -0.030082111
     37        8           0.005070489    0.017851576   -0.010821555
     38        1           0.001873413    0.005011451    0.000711605
     39        1           0.005075264    0.002873105    0.001617220
     40        1          -0.002836905    0.000729867    0.000666533
     41        1          -0.001228099    0.000541190    0.000639708
     42        1          -0.000115297   -0.000094005    0.000125874
     43        1           0.000361328   -0.000086774    0.000105398
     44        1           0.002015967   -0.000195478   -0.000139605
     45        1          -0.000356748    0.001058079   -0.000108811
     46        1           0.014866555   -0.004940453   -0.002935687
     47        1          -0.001382773    0.000674196    0.001289264
     48        1          -0.000150758    0.000456647   -0.000069255
     49        1          -0.001113132    0.000799209   -0.000176826
     50        1           0.000002148    0.000425729   -0.000165988
     51        1          -0.000251663    0.000183967    0.000155691
     52        1          -0.000289895    0.000000193    0.000090654
     53        1          -0.000057956    0.000269949   -0.000142498
     54        1          -0.000355379   -0.000133657   -0.000097583
     55        1          -0.000249090   -0.000093565   -0.000153564
     56        1          -0.000163308    0.000083456   -0.000041623
     57        1          -0.000246853    0.000207901   -0.000269163
     58        1          -0.000310731    0.000247618   -0.000832758
     59        1          -0.000002457    0.000434389   -0.000306771
     60        1          -0.000169556   -0.000070024   -0.000287032
     61        1           0.000168752   -0.000477743    0.000037212
     62        1           0.000141221    0.000017194   -0.000288132
     63        8          -0.017255658    0.010486158    0.000355067
 -------------------------------------------------------------------
 Cartesian Forces:  Max     0.030082111 RMS     0.004809580

 GradGradGradGradGradGradGradGradGradGradGradGradGradGradGradGradGradGrad
 Berny optimization.
 FormGI is forming the generalized inverse of G from B-inverse, IUseBI=4.
 Internal  Forces:  Max     0.030955137 RMS     0.005749163
 Search for a local minimum.
 Step number   1 out of a maximum of  376
 All quantities printed in internal units (Hartrees-Bohrs-Radians)
 Mixed Optimization -- RFO/linear search
 Second derivative matrix not updated -- first step.
 ITU=  0
     Eigenvalues ---    0.00230   0.00230   0.00230   0.00318   0.00322
     Eigenvalues ---    0.00330   0.00332   0.00342   0.00376   0.00452
     Eigenvalues ---    0.00474   0.00576   0.00576   0.00591   0.00651
     Eigenvalues ---    0.00779   0.01075   0.01264   0.01679   0.01795
     Eigenvalues ---    0.02170   0.02186   0.02189   0.02199   0.02322
     Eigenvalues ---    0.02480   0.02709   0.02798   0.03183   0.03607
     Eigenvalues ---    0.03981   0.04119   0.04153   0.04204   0.04771
     Eigenvalues ---    0.04771   0.04900   0.04910   0.05005   0.05118
     Eigenvalues ---    0.05141   0.05161   0.05180   0.05196   0.05202
     Eigenvalues ---    0.05228   0.05327   0.05352   0.05388   0.05439
     Eigenvalues ---    0.05456   0.05457   0.05705   0.05715   0.05715
     Eigenvalues ---    0.05720   0.05754   0.05754   0.05782   0.05873
     Eigenvalues ---    0.05983   0.06068   0.06637   0.07120   0.07871
     Eigenvalues ---    0.08198   0.09380   0.09766   0.09935   0.10249
     Eigenvalues ---    0.11069   0.11887   0.12033   0.13074   0.13293
     Eigenvalues ---    0.13330   0.13331   0.14115   0.14245   0.14494
     Eigenvalues ---    0.14550   0.14666   0.15514   0.15877   0.15997
     Eigenvalues ---    0.15999   0.16000   0.16000   0.16000   0.16000
     Eigenvalues ---    0.16000   0.16000   0.16000   0.16000   0.16000
     Eigenvalues ---    0.16000   0.16000   0.16000   0.16000   0.16000
     Eigenvalues ---    0.16000   0.16000   0.16000   0.16000   0.16000
     Eigenvalues ---    0.16000   0.16000   0.16000   0.16000   0.16000
     Eigenvalues ---    0.16000   0.16059   0.16328   0.17187   0.18943
     Eigenvalues ---    0.18979   0.19042   0.20967   0.21904   0.22014
     Eigenvalues ---    0.22020   0.22103   0.23467   0.23930   0.24752
     Eigenvalues ---    0.24961   0.29070   0.29097   0.29152   0.29169
     Eigenvalues ---    0.29235   0.29472   0.29930   0.30165   0.30919
     Eigenvalues ---    0.31710   0.32483   0.32760   0.33106   0.33248
     Eigenvalues ---    0.33304   0.33308   0.33309   0.33320   0.33326
     Eigenvalues ---    0.33354   0.33391   0.33509   0.33537   0.33572
     Eigenvalues ---    0.33587   0.33604   0.33633   0.33663   0.33675
     Eigenvalues ---    0.33696   0.33697   0.33704   0.33718   0.33720
     Eigenvalues ---    0.33721   0.33737   0.33777   0.33784   0.33842
     Eigenvalues ---    0.33848   0.33927   0.33950   0.33950   0.34073
     Eigenvalues ---    0.34208   0.34595   0.34725   0.34725   0.34735
     Eigenvalues ---    0.42560   0.43663   0.46623   0.47063   0.51114
     Eigenvalues ---    0.54643   0.55853   1.23184
 RFO step:  Lambda=-7.23916100D-02 EMin= 2.30000000D-03
 Linear search not attempted -- first point.
[...]
 ,0.00002719,-0.00000269,0.00001660,-0.00000172,0.00000069,0.00000891,-
 0.00000748,0.00002316,-0.00003800,-0.00024694,-0.00017825,0.00004135,-
 0.00000989,-0.00007538,-0.00003297,0.00005029,-0.00004253,0.00003982,-
 0.00015266,0.00015200,0.00000235,0.00007398,0.00010819,-0.00001442,0.0
 0115499,0.00052947,-0.00092087,0.00008998,-0.00003222,0.00001024,-0.00
 020906,-0.00019902,-0.00138140,0.00000849,-0.00000816,-0.00005886,-0.0
 0003867,-0.00011887,0.00008341,-0.00003775,-0.00000140,-0.00004863,0.0
 2159771,0.00822510,0.00000688,-0.00003762,-0.00000599,-0.00000302,0.00
 002751,-0.00001097,0.00006161,-0.00001287,0.00011347,0.00006183,-0.082
 26390,-0.07152521,0.00840798,0.00273390,-0.00373548,-0.00201052,0.0002
 3763,0.00151784,-0.00018975,-0.00028919,-0.00019072,0.00092974,-0.0000
 1311,0.00000534,0.00002369,0.00001302,-0.00000034,0.00001965,-0.000027
 68,-0.00002210,-0.00001511,-0.00003197,-0.00001427,0.00005401,0.000010
 52,-0.00001314,0.00002065,0.00005242,-0.00000743,0.00001182,0.00000899
 ,0.00010056,0.00040436,0.00000433,0.00009247,0.00009404,0.00006826,-0.
 00002272,0.00002022,-0.00006121,-0.00002937,-0.00004419,0.00000585,0.0
 0000886,0.00001528,0.00000892,-0.00000063,-0.00000882,0.00000674,-0.00
 000093,0.00000315,0.00001056,-0.00000919,-0.00000796,-0.00000259,-0.00
 000096,-0.00000346,-0.00002411,0.00000587,0.00001227,0.00001946,0.0000
 1235,-0.00001936,0.00002662,-0.00003181,-0.00000363,-0.00001505,0.0000
 0153,-0.00000641,-0.00000457,-0.00001902,-0.00001508,-0.00001463,0.000
 05940,-0.00002154,-0.00003933,-0.00002346,0.00001062,-0.00004165,-0.00
 003238,0.00006414,-0.00001646,-0.00001267,-0.00002346,0.00172391,0.000
 54674,-0.00044141,-0.00015669,-0.00027263,0.00003835,0.00008714,0.0001
 0781,-0.00027003,-0.00027338,0.00006318,-0.00012347,-0.00004804,-0.000
 51910,0.00024366,-0.00007173,-0.00002656,-0.00005931,-0.00473506,-0.00
 276065,0.00108198,0.08368567,0.07440526,-0.00074937,0.00003311,-0.0009
 6984,-0.00083602,0.00017335,0.00001700,0.00060260,0.00056019,-0.000715
 03,-0.00001215,-0.00007586,-0.00001570,0.00004288,-0.00001815,-0.00004
 098,-0.00004905,0.00007339,0.00000845,-0.00006249,-0.00008052,0.000095
 49,0.00003356,-0.00002556,0.00001614,0.00001314,-0.00001228,0.00001815
 ,-0.00000232,-0.00006044,0.00004846,0.00005348,0.00007683,-0.00021461,
 -0.00002162,-0.00002304,-0.00008960,0.00007581,0.00000875,-0.00000677,
 -0.00002700,0.00006862,0.00004697,-0.00014126,-0.00002165,-0.00004451,
 0.00184137,0.00015431,-0.00009340,-0.00009414,-0.00017122,0.00013766,-
 0.00005105,0.00009626,0.00029602,-0.00003084,-0.00002069,-0.00000611,-
 0.00006604,-0.00009642,0.00000525,-0.00000456,-0.00003810,0.00007267,0
 .01208945,0.00451969,-0.00274641,-0.00003079,-0.00000037,0.00001539,0.
 00001335,0.00000454,0.00010114,-0.00000353,0.00011313,0.00007164,0.017
 47986,0.00726851,-0.04578205,0.00115559,-0.00269436,-0.00101224,-0.000
 78559,0.00027893,-0.00004577,-0.00011921,-0.00004121,-0.00040473,-0.00
 000601,0.00001371,-0.00002127,0.00000881,0.00000110,0.00000138,-0.0000
 1518,0.00000511,-0.00000477,-0.00002815,0.00000061,0.00002578,0.000013
 61,0.00000386,-0.00002100,0.00003602,0.00000051,-0.00000423,-0.0000699
 4,-0.00032720,-0.00064907,-0.00008488,0.00031422,-0.00005665,0.0000372
 4,-0.00003112,-0.00000109,-0.00001516,-0.00001679,0.00002079,0.0000048
 5,-0.00000166,0.00000015,0.00000548,0.00001343,-0.00000706,0.00000533,
 0.00000122,0.00000584,-0.00000577,-0.00000111,-0.00000084,0.00000880,0
 .00000575,-0.00000468,-0.00002593,0.00002082,0.00001705,0.00001010,0.0
 0001366,-0.00002609,0.00001067,-0.00002857,-0.00001535,-0.00002550,0.0
 0001629,-0.00002809,0.00001557,-0.00000518,-0.00000334,-0.00005312,0.0
 0003220,-0.00003247,-0.00004606,-0.00002497,0.00001158,-0.00004517,-0.
 00001489,0.00004110,-0.00000511,-0.00000060,-0.00001549,0.00113278,0.0
 0016264,0.00049329,0.00015788,0.00016874,0.00032743,-0.00037098,-0.000
 13651,0.00016046,0.00003170,-0.00007466,-0.00017079,-0.00003780,0.0001
 0202,0.00048576,-0.00018182,-0.00012915,-0.00006113,-0.02718322,-0.008
 43340,0.00300374,-0.02108469,-0.00615124,0.04923566,-0.00013589,-0.000
 58891,0.00023904,-0.00021125,-0.00010332,0.00018843,0.00009193,-0.0002
 5482,-0.00098611,0.00000216,0.00008497,-0.00001834,-0.00027459,0.00020
 117,0.00018478,0.00008264,0.00033324,-0.00028326,-0.00000069,-0.000078
 11,-0.00002012,0.00000821,-0.00000227,-0.00001339,0.00000474,-0.000007
 05,-0.00001932,0.00002111,-0.00001563,-0.00002921,0.00037415,0.0000843
 9,-0.00020646,-0.00000657,0.00004220,-0.00001626,-0.00000598,0.0000253
 4,-0.00001337,0.00010896,0.00002795,0.00001037,-0.00014701,-0.00003382
 ,0.00001382,0.00026827,-0.00026341,0.00002528,-0.00006703,-0.00012302,
 0.00026370,-0.00007830,-0.00015440,0.00062239,-0.00002216,-0.00000688,
 0.00002675,-0.00008578,0.00001913,-0.00009020,0.00000060,0.00000117,0.
 00005492,-0.00024761,0.01321871,-0.01172137,0.00002677,-0.00003883,0.0
 0002362,-0.00001179,0.00000024,0.00005094,0.00004606,0.00001911,0.0000
 3984,-0.04612242,-0.01147619,0.00923588,0.00124439,0.00064048,-0.00113
 196,-0.00242782,0.00313256,0.00165957,-0.00015133,-0.00045427,-0.00078
 648,0.00000799,-0.00000478,-0.00002178,-0.00000062,0.00000007,-0.00001
 074,0.00000627,0.00001142,-0.00000208,0.00001352,0.00001094,-0.0000134
 3,0.00000261,0.00001369,-0.00001077,-0.00001042,-0.00000222,-0.0000057
 6,0.00004242,0.00003532,-0.00046542,0.00002489,0.00008627,-0.00003721,
 -0.00005211,0.00002936,-0.00000211,-0.00000500,-0.00000111,0.00000834,
 -0.00000006,-0.00000439,-0.00000286,0.00000117,0.00000639,-0.00000018,
 -0.00000221,0.00000004,0.00000103,-0.00000792,0.00000224,0.00000436,0.
 00000482,0.00000409,-0.00000059,-0.00000655,0.00000331,-0.00000683,-0.
 00000072,0.00000394,0.00000065,-0.00000568,-0.00000248,-0.00000988,-0.
 00000519,-0.00000059,0.00001570,-0.00002620,-0.00003539,-0.00002371,0.
 00003845,0.00002149,-0.00004606,-0.00001385,-0.00001535,-0.00001413,-0
 .00004148,0.00000316,0.00000414,0.00000154,-0.00000603,0.00000201,0.00
 027218,-0.00025015,0.00001488,-0.00009427,0.00001350,-0.00013787,-0.00
 024423,-0.00014102,0.00052830,0.00034430,0.00120737,-0.00063356,-0.000
 00213,0.00016418,-0.00005071,-0.00004506,-0.00015083,0.00031151,-0.000
 46331,0.00890939,-0.00553353,0.00202844,-0.02272126,0.01742662,0.04601
 516,-0.00026976,-0.00080508,0.00037547,-0.00011319,-0.00021598,0.00007
 841,-0.00001059,0.00087885,0.00004441,0.00016658,0.00017152,-0.0002282
 6,-0.00046766,0.00015647,0.00022557,0.00063898,-0.00013121,0.00047537,
 0.00001540,-0.00006936,-0.00002992,0.00000782,0.00000194,-0.00000450,0
 .00001417,-0.00002034,-0.00000268,-0.00003357,0.00000557,-0.00001938,-
 0.00020287,0.00003418,-0.00010274,-0.00005312,0.00001063,0.00002232,0.
 00000130,0.00002017,-0.00000955,0.00006330,0.00000293,0.00000288,0.000
 18235,0.00013031,0.00007264,0.00072681,-0.00142597,0.00192603,0.000249
 98,0.00030146,-0.00045234,-0.00024312,0.00038766,-0.00004348,-0.000007
 92,-0.00001389,0.00003219,-0.00005065,0.00004223,-0.00020124,-0.000008
 80,-0.00000640,0.00004154,-0.00340303,-0.01691552,0.01357971,0.0000522
 1,0.00002448,-0.00001435,0.00000570,0.00009408,0.00006992,-0.00003497,
 -0.00001839,0.00000877,-0.01063405,-0.23020112,0.12545982,-0.00156669,
 0.00077388,0.00030971,0.00377615,-0.00331188,-0.00348509,-0.00004919,-
 0.00023498,-0.00042929,0.00000389,-0.00000040,-0.00001876,0.00000317,0
 .00000012,-0.00001006,0.00000428,0.00000611,0.00000283,0.00000753,-0.0
 0000541,-0.00001176,-0.00000157,0.00001209,-0.00000509,-0.00000844,-0.
 00000068,-0.00000078,0.00007112,-0.00014376,-0.00015542,-0.00008038,0.
 00019390,-0.00008078,0.00005307,0.00005403,0.00001837,0.00000872,0.000
 00208,0.00001012,-0.00000472,-0.00000129,-0.00000205,0.00000372,0.0000
 0873,-0.00000264,-0.00000345,0.,0.00000216,-0.00000695,0.00000162,0.00
 000406,0.00000702,0.00000603,-0.00000166,-0.00001229,0.00000516,-0.000
 01078,-0.00001838,0.00000569,-0.00004126,0.00000725,0.00000807,0.00001
 076,-0.00002279,0.00002616,-0.00007450,0.00005095,0.00006580,0.0000552
 4,-0.00013150,-0.00003231,0.00001395,-0.00000074,0.00002447,-0.0000009
 4,0.00002154,-0.00001741,0.00001352,0.00001085,0.00001643,-0.00005896,
 -0.00015367,0.00022244,-0.00030016,0.00009106,-0.00003666,-0.00002617,
 0.00075837,0.00046126,-0.00035044,0.00003639,-0.00114114,0.00142332,-0
 .00000286,0.00034759,-0.00009850,-0.00000614,0.00031461,-0.00006802,0.
 00019686,0.00607285,-0.00482079,0.00179780,-0.00637805,0.00432879,0.00
 863002,0.25021168,0.00010689,0.00021561,-0.00024924,0.00009076,0.00005
 543,0.00003675,-0.00137962,-0.00019515,-0.00134145,0.00004139,0.000035
 51,0.00002417,0.00012058,-0.00007872,-0.00002675,-0.00047185,0.0001454
 0,-0.00061306,-0.00001749,0.00000542,-0.00003028,0.00001440,0.00000315
 ,0.00000036,0.00002756,-0.00002256,0.00000408,0.00000672,0.00004920,0.
 00002326,-0.00023696,-0.00047479,-0.00101440,0.00003478,-0.00000817,0.
 00000788,0.00001275,-0.00000126,0.00000113,-0.00001390,0.00002030,-0.0
 0000269,0.00003910,-0.00005243,0.00000898,-0.00026179,-0.00065611,0.00
 054260,0.00019461,0.00006187,-0.00049591,0.00006512,-0.00023960,-0.000
 05062,-0.00000853,0.00000309,-0.00001873,0.00019261,0.00006734,0.00006
 227,-0.00001458,-0.00000529,0.00000166,-0.00097849,-0.01102182,0.00654
 859,-0.00008050,0.00002743,0.00001754,-0.00001909,-0.00000307,0.000039
 18,0.00001751,0.00001853,0.00000149,0.00874760,0.12784708,-0.13053497,
 -0.00043637,-0.00028308,0.00049749,0.00090517,-0.00141793,-0.00048994,
 -0.00001774,0.00004277,0.00010628,-0.00000208,0.00000333,-0.00000006,0
 .00000171,0.00000054,0.00000505,-0.00000350,0.00000011,-0.00000153,0.0
 0000046,-0.00000019,0.00000311,0.00000179,-0.00000159,0.00000035,0.000
 00668,0.00000013,-0.00000165,-0.00007055,0.00004262,-0.00005419,0.0000
 0359,0.00003648,-0.00001104,-0.00000389,-0.00000664,0.,-0.00001006,-0.
 00000589,0.00000086,0.00000282,0.00000031,0.00000308,-0.00000040,0.000
 00037,-0.00000125,0.00000302,0.00000029,0.00000157,-0.00000015,-0.0000
 0063,-0.00000226,-0.00000053,-0.00000057,-0.00000143,-0.00000001,0.000
 02354,0.00002993,0.00000018,-0.00000772,-0.00000688,-0.00000023,-0.000
 00576,-0.00000112,-0.00001267,0.00001057,0.00000393,-0.00000430,-0.000
 00389,0.00000095,-0.00000530,0.00001019,0.00000986,-0.00001305,0.00000
 479,0.00000216,-0.00000658,0.00000096,-0.00000007,0.00000433,0.0000037
 0,-0.00000631,-0.00019222,-0.00018885,-0.00001773,-0.00000577,0.000212
 21,-0.00023324,-0.00014629,0.00022050,0.00011765,0.00025190,-0.0004141
 5,0.00085611,-0.00000021,-0.00006736,-0.00019392,0.00032973,-0.0000868
 3,0.00051103,0.00258234,0.02346571,-0.01478434,-0.00095171,-0.00003422
 ,-0.00186917,-0.00847842,-0.13734964,0.14253021,-0.00023464,0.00133094
 ,0.00012659,-0.00015227,-0.00043991,0.00003724,-0.00029804,-0.00047142
 ,0.00016966,0.00011551,-0.00000589,-0.00000160,0.00019270,-0.00026765,
 -0.00002831,-0.00000174,0.00018168,-0.00000966,-0.00003492,-0.00027874
 ,0.00008752,0.00003691,-0.00006015,-0.00003447,0.00001465,-0.00001408,
 -0.00001822,-0.00002135,-0.00000694,0.00000146,-0.00050179,-0.00018077
 ,-0.00006922,-0.00037703,0.00017118,-0.00096031,0.00008520,-0.00009647
 ,-0.00013017,0.00007433,0.00008921,0.00004138,-0.00023682,-0.00005078,
 -0.00011139,0.00331214,0.00261580,0.00288167,0.00006221,-0.00024752,0.
 00018205,0.02993769,-0.00483518,-0.01427091,-0.00035273,-0.00033352,-0
 .00026075,-0.00119022,-0.00057978,-0.00036721,0.00020553,0.00008795,0.
 00006665,0.00004359,0.00007690,-0.00017353,-0.00101983,-0.00094707,0.0
 0007876,-0.00016672,-0.00018360,0.00005226,-0.00018059,0.00039116,-0.0
 0007386,-0.00009548,-0.00001277,-0.00011619,0.00004993,0.00002104,-0.0
 0005542,-0.00008875,-0.00007550,-0.00012511,-0.00851498,0.00012199,-0.
 00005605,-0.00017834,-0.00086209,-0.00014910,0.00026275,0.00006788,0.0
 0044556,-0.00002540,0.00106536,-0.00016800,0.00006340,0.00003635,0.000
 12989,0.00000783,-0.00001672,-0.00011205,0.00012169,0.00007415,-0.0001
 3291,-0.07469872,-0.01773676,-0.16234965,0.00057184,0.00139435,0.00115
 062,-0.00011030,-0.00030258,0.00033505,-0.00040570,-0.00002996,-0.0001
 1531,0.00020992,0.00005574,0.00000727,0.00002215,0.00001068,0.00008048
 ,0.00019129,-0.00003207,0.00000625,-0.00023660,0.00006676,0.00006341,-
 0.00016165,-0.00000946,0.00002833,-0.00033704,0.00019889,-0.00029892,-
 0.00161132,0.00104444,-0.00088759,-0.00062460,-0.00035009,0.00000551,-
 0.00003563,0.00004723,0.00005425,0.00003509,-0.00003869,-0.00000114,-0
 .00003871,0.00004221,-0.00010096,-0.00012839,-0.00001848,0.00011364,-0
 .00004081,-0.00004378,-0.00000770,0.00006467,-0.00000958,0.00003260,0.
 00000988,0.00001377,0.00002745,-0.00006588,-0.00004271,-0.00004992,-0.
 00000422,-0.00002317,0.00005052,-0.00008466,-0.00001807,0.00003263,0.0
 0003669,-0.00009671,0.00016813,-0.00005324,-0.00002213,-0.00006467,-0.
 00003245,-0.00005337,-0.00005396,-0.00008593,0.00011481,0.00006498,-0.
 00006051,-0.00006128,0.00003874,0.05676043,-0.00046457,0.00372597,0.00
 351562,0.00089732,-0.00035151,0.00008700,0.00015838,-0.00101772,0.0004
 3268,-0.00022829,0.00022155,-0.00011733,0.00016837,-0.00044201,-0.0000
 4308,-0.00023508,0.00031243,-0.00022916,-0.00026543,-0.00045638,0.0003
 0261,0.00002286,-0.00000725,-0.00002650,0.00001438,0.00001190,0.000033
 67,-0.00000264,-0.00003385,0.00002662,-0.00024753,0.00030615,0.0000595
 4,0.00023134,0.00033208,0.00021422,0.00007495,-0.00002139,0.00003905,-
 0.00025917,0.00012512,-0.00001987,-0.00002462,-0.00019279,-0.00001058,
 0.00221421,-0.00045100,0.00038987,-0.00002980,-0.00001420,0.00005963,-
 0.00251760,0.03195916,-0.01383754,-0.00032283,-0.00068023,-0.00048041,
 0.00018645,-0.00035021,-0.00048783,-0.00011173,-0.00026412,0.00034632,
 -0.00022809,0.00016980,-0.00005894,-0.00010589,-0.00006225,0.00088437,
 -0.00003362,0.00005060,0.00020588,0.00000526,0.00024161,0.00032968,0.0
 0003412,-0.00013062,-0.00001223,0.00000834,0.00004116,-0.00008750,-0.0
 0012050,-0.00015548,0.00006290,0.00008259,-0.00812076,0.00061983,0.000
 14443,0.00006013,-0.00004225,0.00004069,0.00010915,0.00016151,0.000184
 20,0.00025312,-0.00013327,-0.00002727,0.00000540,-0.00005209,-0.000007
 47,0.00005187,-0.00007266,0.00000851,0.00006131,-0.00004822,-0.0185734
 1,-0.05944974,-0.10592390,0.00002801,-0.00057142,-0.00288994,-0.000270
 96,0.00064779,-0.00032727,-0.00000890,0.00000532,-0.00015707,0.0001080
 0,0.00000629,-0.00001152,0.00000161,0.00004864,0.00004072,0.00006093,-
 0.00004369,0.00001733,-0.00010866,0.00003600,0.00003005,0.00001880,-0.
 00000998,-0.00003501,0.00005592,0.00010293,0.00001348,-0.00019705,-0.0
 0012586,0.00003328,0.00028221,0.00026086,-0.00043790,-0.00008053,0.000
 07119,-0.00001065,-0.00000804,-0.00003174,-0.00006490,0.00005638,-0.00
 001481,0.00003891,-0.00012576,-0.00002841,0.00005308,0.00010642,0.0000
 6003,-0.00002665,0.00002451,-0.00001654,-0.00004424,-0.00005241,0.0000
 2285,-0.00000130,-0.00005964,-0.00002924,-0.00001248,0.00003271,-0.000
 01007,0.00001489,-0.00002494,0.00002585,-0.00001470,0.00010389,-0.0000
 1143,-0.00001601,0.00005764,0.00005175,-0.00004154,-0.00009133,-0.0000
 1134,-0.00002150,-0.00006437,0.00003801,0.00012258,-0.00005029,0.00002
 394,-0.00000055,0.01953497,0.03366604,-0.00146766,0.01252745,0.0037717
 0,0.00210559,-0.00248512,-0.00099619,-0.00033606,-0.00408179,-0.000018
 22,-0.00014091,0.00101536,-0.00011764,0.00069677,-0.00221539,0.0001144
 8,-0.00077854,0.00107129,-0.00011564,-0.00101300,-0.00008167,0.0006884
 9,0.00017575,-0.00016456,-0.00009402,-0.00000385,-0.00003926,-0.000025
 49,-0.00013226,-0.00027284,-0.00002892,-0.00141843,-0.00106241,0.00006
 958,0.00168396,0.00074352,0.00340488,0.00051651,-0.00032687,-0.0000769
 8,-0.00056109,0.00067987,0.00049961,-0.00120372,-0.00038483,0.00017854
 ,0.01426806,0.00550902,-0.00293373,-0.00000282,-0.00092692,0.00084856,
 -0.02239454,-0.02903092,-0.06523824,-0.00107813,-0.00013275,-0.0044174
 9,-0.00128887,-0.00401387,-0.00121382,-0.00022828,-0.00085230,0.000916
 31,-0.00201075,-0.00030228,0.00093576,0.00000411,0.00193639,-0.0005894
 6,0.00028475,0.00050799,0.00115192,-0.00056540,0.00184396,0.00115493,0
 .00009896,-0.00004326,0.00020025,0.00020482,-0.00019954,-0.00096818,0.
 00006849,-0.00008664,-0.00007448,0.00203831,0.00241399,-0.00209209,0.0
 0051973,-0.00169189,-0.00059302,0.00066272,0.00006966,0.00173719,0.001
 31625,0.00146638,-0.00066826,-0.00041044,-0.00021658,0.00068260,0.0002
 0019,-0.00022528,-0.00018620,0.00055994,0.00017249,-0.00026038,-0.1622
 3216,-0.10219105,-0.96544243,0.00048710,0.00611239,0.00568502,0.000665
 70,-0.00086316,0.00134445,-0.00121184,-0.00023812,-0.00044180,0.000667
 25,0.00018088,0.00016700,0.00004450,0.00017227,0.00015428,0.00073614,-
 0.00005603,0.00014308,-0.00056883,0.00025820,0.00006304,-0.00038906,-0
 .00004087,-0.00002802,0.00040974,-0.00014312,0.00067397,-0.00164390,-0
 .00195687,0.00097781,-0.00063980,0.00057834,-0.00158334,-0.00047433,0.
 00037971,0.00003681,0.00024470,-0.00028656,-0.00016884,0.00032085,-0.0
 0022081,0.00033824,-0.00083913,-0.00018574,0.00041759,0.00041257,0.000
 12546,-0.00006518,0.00004177,-0.00034270,-0.00013025,-0.00021615,0.000
 13323,-0.00000935,-0.00044601,-0.00015194,-0.00005833,0.00003295,-0.00
 012924,0.00009879,-0.00020267,0.00007442,-0.00004253,0.00029742,-0.000
 29922,0.00063198,-0.00027502,-0.00011552,-0.00017146,-0.00025685,-0.00
 004712,-0.00013890,-0.00001541,0.00056736,0.00039988,-0.00011334,-0.00
 009591,0.00005469,0.17479366,0.11766130,1.02144747\\-0.00000171,-0.000
 00188,-0.00000712,0.00000421,0.00000179,-0.00000112,-0.00000021,-0.000
 00094,0.00000040,-0.00000242,-0.00000296,0.00000177,0.00000278,0.00000
 266,-0.00000059,-0.00000264,0.00000196,-0.00000016,0.00000874,0.000006
 30,0.00000139,-0.00000055,-0.00000045,-0.00000065,-0.00000206,-0.00000
 075,-0.00000396,-0.00000026,-0.00000053,-0.00000158,-0.00000639,-0.000
 00426,0.00000053,-0.00000216,-0.00001800,-0.00000787,0.00000074,-0.000
 00296,-0.00000276,-0.00000029,0.00000253,0.00000103,0.00000133,-0.0000
 0152,-0.00000026,0.00000820,-0.00000632,0.00000085,-0.00000153,0.00000
 050,-0.00000126,0.00001479,0.00000519,0.00000225,-0.00000305,-0.000008
 37,-0.00000412,-0.00001474,0.00001741,-0.00000998,-0.00000154,-0.00000
 079,0.00001003,-0.00000560,-0.00000207,-0.00000080,-0.00000247,-0.0000
 0360,0.00000317,0.00000283,-0.00000579,0.00000821,0.00000713,0.0000008
 9,-0.00000061,-0.00000091,0.00000254,-0.00000240,0.00000408,0.00000033
 ,-0.00000017,0.00000193,0.00000311,0.00000100,-0.00000244,0.00000299,-
 0.00000627,0.00000154,0.00000070,-0.00000131,-0.00000284,-0.00000236,-
 0.00000105,-0.00000092,-0.00000184,0.00000128,0.00000057,0.00000140,-0
 .00000184,0.00000120,0.00000485,-0.00001069,0.00000017,-0.00000044,-0.
 00000180,-0.00001787,0.00001896,0.00002866,-0.00000994,-0.00001224,0.0
 0000019,0.00000162,0.00000595,0.00000289,0.00000365,-0.00000343,0.0000
 0595,0.00000229,0.00000151,0.00000421,0.00000508,-0.00000477,0.0000024
 4,0.00000059,-0.00000166,-0.00000042,0.00000078,-0.00000205,0.00000104
 ,-0.00000002,0.00000014,-0.00000077,-0.00000010,-0.00000323,0.00000346
 ,-0.00000295,0.00000439,-0.00000352,0.00000552,-0.00000180,-0.00000085
 ,0.00000031,-0.00000074,0.00000245,0.00000138,0.00000178,0.00000030,0.
 00000008,-0.00000068,0.00000085,-0.00000102,0.00000031,0.00000306,0.00
 000067,0.00000388,-0.00000164,-0.00000511,-0.00000220,0.00000253,-0.00
 000008,0.00000184,-0.00000068,-0.00000040,0.00000208,0.00000002,-0.000
 00100,0.00000143,0.00000105,0.00000308,0.00000007,-0.00000120,0.000000
 61,0.00000158,0.00000156,-0.00000071,0.00000150,-0.00000133,-0.0000007
 8,0.00000214,-0.00000205,-0.00000117,0.00000120,-0.00000102,-0.0000016
 0,0.00000187,-0.00000216,0.00001158,-0.00000716,-0.00000857\\\@


 NATURE WILL TELL YOU A DIRECT LIE IF SHE CAN.

                                -- CHARLES DARWIN
 Job cpu time:       0 days 20 hours  8 minutes 37.5 seconds.
 Elapsed time:       0 days  1 hours  0 minutes 30.6 seconds.
 File lengths (MBytes):  RWF=   2077 Int=      0 D2E=      0 Chk=     30 Scr=      1
 Normal termination of Gaussian 16 at Thu Nov  8 23:37:38 2018.
