63
	Energy: -928584.1363893
N          0.71566        1.37102        0.24967
C          1.88601        1.90688       -0.14944
C         -0.22203        2.13284        0.85849
C          2.19685        3.23563        0.11033
C          1.25695        4.02958        0.76442
C          0.03258        3.47557        1.12784
C          2.73322        0.98067       -0.96914
H          3.15802        3.64155       -0.20754
H          1.47320        5.07710        0.98044
H         -0.73060        4.07916        1.62065
C         -1.51831        1.44743        1.18218
N          2.66800       -0.41382       -0.49369
H          3.77113        1.35162       -1.03319
H          2.30857        0.97872       -1.98663
H         -1.44297        0.99243        2.18545
P         -1.75656       -0.02385        0.03128
H         -2.35119        2.16642        1.20696
Ru         0.41346       -0.61138       -0.14255
C          3.42690       -0.55444        0.77262
C         -3.03865       -1.11267        0.91840
C          3.17947       -1.30585       -1.55970
C         -2.54199        0.74825       -1.53001
C         -2.28511       -1.92416        1.97289
C         -3.61065       -2.11050       -0.09137
C         -4.15196       -0.32493        1.61073
C         -1.68563        1.95376       -1.93209
C         -3.97745        1.23127       -1.32770
C         -2.47899       -0.26757       -2.67357
H          0.32804       -0.24845       -1.77202
H          2.99417        0.17132        1.47773
C          4.93463       -0.36535        0.69258
H          3.19723       -1.54836        1.17591
H          2.49649       -1.16511       -2.41000
C          3.19508       -2.76566       -1.16012
H          4.18443       -0.96125       -1.87714
C          0.60946       -1.12466        1.67406
O          0.15196       -2.61505       -0.66095
H         -0.04077       -2.60617       -1.60553
H          2.18267       -3.05345       -0.82169
H          3.93873       -2.98216       -0.37773
H          3.46261       -3.37173       -2.03913
H          5.35640       -0.47464        1.70297
H          5.22566        0.63128        0.32769
H          5.41672       -1.11829        0.05220
H         -3.00470       -2.58654        2.48267
H         -1.82336       -1.29010        2.74351
H         -1.50496       -2.54116        1.50536
H         -4.20342       -2.86484        0.45241
H         -2.79842       -2.63566       -0.61747
H         -4.27589       -1.63992       -0.82798
H         -4.82587       -1.03594        2.11799
H         -4.76170        0.26958        0.92036
H         -3.75465        0.34758        2.38635
H         -4.68328        0.40641       -1.16265
H         -4.30489        1.76218       -2.23745
H         -4.06683        1.93952       -0.48927
H         -3.11348       -1.14547       -2.49985
H         -1.44317       -0.60744       -2.81777
H         -2.82265        0.21757       -3.60270
H         -2.05123        2.33470       -2.90001
H         -0.63235        1.66355       -2.05282
H         -1.75400        2.77998       -1.20884
O          0.81361       -1.39650        2.78236
