 Entering Gaussian System, Link 0=g16
 Initial command:
 /cluster/chemistry/gaussian/g16/l1.exe "/scratch/js1212.15142/scratch/Gau-26361.inp" -scrdir="/scratch/js1212.15142/scratch/"
 Entering Link 1 = /cluster/chemistry/gaussian/g16/l1.exe PID=     26362.
  
 Copyright (c) 1988,1990,1992,1993,1995,1998,2003,2009,2016,
            Gaussian, Inc.  All Rights Reserved.
  
 This is part of the Gaussian(R) 16 program.  It is based on
 the Gaussian(R) 09 system (copyright 2009, Gaussian, Inc.),
 the Gaussian(R) 03 system (copyright 2003, Gaussian, Inc.),
 the Gaussian(R) 98 system (copyright 1998, Gaussian, Inc.),
 the Gaussian(R) 94 system (copyright 1995, Gaussian, Inc.),
 the Gaussian 92(TM) system (copyright 1992, Gaussian, Inc.),
 the Gaussian 90(TM) system (copyright 1990, Gaussian, Inc.),
 the Gaussian 88(TM) system (copyright 1988, Gaussian, Inc.),
 the Gaussian 86(TM) system (copyright 1986, Carnegie Mellon
 University), and the Gaussian 82(TM) system (copyright 1983,
 Carnegie Mellon University). Gaussian is a federally registered
 trademark of Gaussian, Inc.
  
 This software contains proprietary and confidential information,
 including trade secrets, belonging to Gaussian, Inc.
  
 This software is provided under written license and may be
 used, copied, transmitted, or stored only in accord with that
 written license.
  
 The following legend is applicable only to US Government
 contracts under FAR:
  
                    RESTRICTED RIGHTS LEGEND
  
 Use, reproduction and disclosure by the US Government is
 subject to restrictions as set forth in subparagraphs (a)
 and (c) of the Commercial Computer Software - Restricted
 Rights clause in FAR 52.227-19.
  
 Gaussian, Inc.
 340 Quinnipiac St., Bldg. 40, Wallingford CT 06492
  
  
 ---------------------------------------------------------------
 Warning -- This program may not be used in any manner that
 competes with the business of Gaussian, Inc. or will provide
 assistance to any competitor of Gaussian, Inc.  The licensee
 of this program is prohibited from giving any competitor of
 Gaussian, Inc. access to this program.  By using this program,
 the user acknowledges that Gaussian, Inc. is engaged in the
 business of creating and licensing software in the field of
 computational chemistry and represents and warrants to the
 licensee that it is not a competitor of Gaussian, Inc. and that
 it will not use this program in any manner prohibited above.
 ---------------------------------------------------------------
  

 Cite this work as:
 Gaussian 16, Revision A.03,
 M. J. Frisch, G. W. Trucks, H. B. Schlegel, G. E. Scuseria, 
 M. A. Robb, J. R. Cheeseman, G. Scalmani, V. Barone, 
 G. A. Petersson, H. Nakatsuji, X. Li, M. Caricato, A. V. Marenich, 
 J. Bloino, B. G. Janesko, R. Gomperts, B. Mennucci, H. P. Hratchian, 
 J. V. Ortiz, A. F. Izmaylov, J. L. Sonnenberg, D. Williams-Young, 
 F. Ding, F. Lipparini, F. Egidi, J. Goings, B. Peng, A. Petrone, 
 T. Henderson, D. Ranasinghe, V. G. Zakrzewski, J. Gao, N. Rega, 
 G. Zheng, W. Liang, M. Hada, M. Ehara, K. Toyota, R. Fukuda, 
 J. Hasegawa, M. Ishida, T. Nakajima, Y. Honda, O. Kitao, H. Nakai, 
 T. Vreven, K. Throssell, J. A. Montgomery, Jr., J. E. Peralta, 
 F. Ogliaro, M. J. Bearpark, J. J. Heyd, E. N. Brothers, K. N. Kudin, 
 V. N. Staroverov, T. A. Keith, R. Kobayashi, J. Normand, 
 K. Raghavachari, A. P. Rendell, J. C. Burant, S. S. Iyengar, 
 J. Tomasi, M. Cossi, J. M. Millam, M. Klene, C. Adamo, R. Cammi, 
 J. W. Ochterski, R. L. Martin, K. Morokuma, O. Farkas, 
 J. B. Foresman, and D. J. Fox, Gaussian, Inc., Wallingford CT, 2016.
 
 ******************************************
 Gaussian 16:  ES64L-G16RevA.03 25-Dec-2016
                11-Nov-2018 
 ******************************************
 %rwf=/scratch/js1212.15142/2-Full-Cis-A-GPNMR-NoSpin.rwf
 %nosave
 %nprocshared=16
 Will use up to   16 processors via shared memory.
 %mem=3000MB
 %chk=/scratch/js1212.15142/2-Full-Cis-A-GPOF.chk
 ----------------------------------------------------------------------
 # nmr genecp pbe1pbe EmpiricalDispersion=GD3BJ scrf=(SMD,solvent=water
 ) geom=allcheck
 ----------------------------------------------------------------------
 1/29=7,38=1,172=1/1;
 2/12=2,40=1/2;
 3/5=7,11=2,14=-4,16=1,17=8,25=1,30=1,70=32201,72=1,74=-13,124=41/1,2,3,8;
 4//1;
 5/5=2,38=5,53=1/2;
 8/6=1,10=90,11=11/1;
 10/13=100,45=16/2;
 6/7=2,8=2,9=2,10=2,28=1/1;
 99/9=1/99;
 Structure from the checkpoint file:  "/scratch/js1212.15142/2-Full-Cis-A-GPOF.chk"
 -------------------
 Title Card Required
 -------------------
 Charge =  0 Multiplicity = 1
 Redundant internal coordinates found in file.  (old form).
 N,0,-0.7918812609,1.4168393179,-0.1797083441
 C,0,-1.9748490699,1.8626473396,0.287192185
 C,0,0.1221555013,2.2781099001,-0.6827278584
 C,0,-2.3229751972,3.2049606428,0.2055949297
 C,0,-1.4077851342,4.1041159914,-0.3380615297
 C,0,-0.1701793677,3.6371050377,-0.772001234
 C,0,-2.7931011803,0.8131113477,0.9774675118
 H,0,-3.2936136464,3.5385582831,0.5747071781
 H,0,-1.6534888112,5.1646165785,-0.4135295879
 H,0,0.5742098001,4.3214227814,-1.1809111267
 C,0,1.4353993764,1.6776244921,-1.0947069685
 N,0,-2.6916554775,-0.5039304791,0.3217054563
 H,0,-3.8405056601,1.1434886949,1.0903965357
 H,0,-2.3644857155,0.6883826558,1.9856111812
 H,0,1.3685146588,1.3573663185,-2.1493201589
 P,0,1.7184397266,0.0742468955,-0.1486364232
 H,0,2.2481861831,2.4163443602,-1.0244553651
 Ru,0,-0.4339752965,-0.5908956414,-0.0532824014
 C,0,-3.4514934843,-0.4968109309,-0.9518021826
 C,0,3.0262743603,-0.8518397486,-1.1724480004
 C,0,-3.1742434498,-1.5428797338,1.2605266583
 C,0,2.4887034886,0.6545489498,1.5007930701
 C,0,2.2910052184,-1.5372974699,-2.3247527336
 C,0,3.6294109079,-1.9582204516,-0.3037467104
 C,0,4.1148277877,0.0510112653,-1.7548865201
 C,0,1.6012863144,1.7721666378,2.059113887
 C,0,3.9095825373,1.1995994466,1.3636475561
 C,0,2.4581053825,-0.5049009461,2.4999444106
 H,0,-0.3519872844,-0.4443821575,1.609845928
 H,0,-3.0416195008,0.3274911171,-1.5548667345
 C,0,-4.9635022761,-0.3617351461,-0.8469226159
 H,0,-3.1963252328,-1.4219422942,-1.4831147866
 H,0,-2.4919642222,-1.4969657883,2.1217309536
 C,0,-3.1514993852,-2.936909645,0.6713593858
 H,0,-4.1869763439,-1.2712070802,1.6211265125
 C,0,-0.6231383938,-0.864693327,-1.9217593918
 O,0,-0.115667159,-2.637518024,0.1954199643
 H,0,0.0805382406,-2.7482827502,1.1328049819
 H,0,-2.1329588459,-3.1493123867,0.2974780376
 H,0,-3.8920791728,-3.0685351041,-0.1325313904
 H,0,-3.3988118214,-3.6610432245,1.4625626965
 H,0,-5.3861688365,-0.3480968156,-1.8627369447
 H,0,-5.2802258582,0.5694583848,-0.3532975445
 H,0,-5.4222352492,-1.2057790613,-0.3115963742
 H,0,3.0263977646,-2.1063017212,-2.9179286437
 H,0,1.8089835015,-0.8199282431,-3.0045584371
 H,0,1.5299164085,-2.2320430388,-1.9426734978
 H,0,4.2404206628,-2.6173452044,-0.9427493357
 H,0,2.8339811069,-2.5705907779,0.1485402258
 H,0,4.2844749612,-1.5709441128,0.4883950062
 H,0,4.8058992237,-0.5677713557,-2.3519833762
 H,0,4.7108340853,0.5656516598,-0.9921502396
 H,0,3.6961528291,0.808932494,-2.4345843333
 H,0,4.637056075,0.423645033,1.0906765348
 H,0,4.2260152956,1.6144049823,2.3355126322
 H,0,3.9761852402,2.0146904532,0.6262392371
 H,0,3.1156821751,-1.3342399991,2.211399255
 H,0,1.4325622945,-0.8893756422,2.5982903446
 H,0,2.7920912949,-0.1375539878,3.4849692092
 H,0,1.9602075391,2.0317429999,3.068783399
 H,0,0.5568358016,1.4395242639,2.1407636139
 H,0,1.6441230822,2.688337277,1.4514868026
 O,0,-0.8242164921,-0.9931433126,-3.0562044894
 Recover connectivity data from disk.
                           ----------------------------
                           !    Current Parameters    !
                           ! (Angstroms and Degrees)  !
 --------------------------                            --------------------------
 ! Name  Definition              Value                                          !
 --------------------------------------------------------------------------------
 ! R1    R(1,2)                  1.3476                                         !
 ! R2    R(1,3)                  1.3529                                         !
 ! R3    R(1,18)                 2.0433                                         !
 ! R4    R(2,4)                  1.3891                                         !
 ! R5    R(2,7)                  1.4992                                         !
 ! R6    R(3,6)                  1.3929                                         !
 ! R7    R(3,11)                 1.5016                                         !
 ! R8    R(4,5)                  1.3934                                         !
 ! R9    R(4,8)                  1.0907                                         !
 ! R10   R(5,6)                  1.3921                                         !
 ! R11   R(5,9)                  1.0912                                         !
 ! R12   R(6,10)                 1.0907                                         !
 ! R13   R(7,12)                 1.4748                                         !
 ! R14   R(7,13)                 1.1041                                         !
 ! R15   R(7,14)                 1.1026                                         !
 ! R16   R(11,15)                1.1042                                         !
 ! R17   R(11,16)                1.8831                                         !
 ! R18   R(11,17)                1.1006                                         !
 ! R19   R(12,19)                1.483                                          !
 ! R20   R(12,21)                1.4811                                         !
 ! R21   R(16,18)                2.2549                                         !
 ! R22   R(16,20)                1.9016                                         !
 ! R23   R(16,22)                1.9107                                         !
 ! R24   R(18,29)                1.6716                                         !
 ! R25   R(18,36)                1.8979                                         !
 ! R26   R(18,37)                2.0861                                         !
 ! R27   R(19,30)                1.1005                                         !
 ! R28   R(19,31)                1.5216                                         !
 ! R29   R(19,32)                1.0969                                         !
 ! R30   R(20,23)                1.5291                                         !
 ! R31   R(20,24)                1.5305                                         !
 ! R32   R(20,25)                1.5295                                         !
 ! R33   R(21,33)                1.0997                                         !
 ! R34   R(21,34)                1.5136                                         !
 ! R35   R(21,35)                1.1088                                         !
 ! R36   R(22,26)                1.5324                                         !
 ! R37   R(22,27)                1.528                                          !
 ! R38   R(22,28)                1.5309                                         !
 ! R39   R(23,45)                1.1029                                         !
 ! R40   R(23,46)                1.0996                                         !
 ! R41   R(23,47)                1.0991                                         !
 ! R42   R(24,48)                1.1028                                         !
 ! R43   R(24,49)                1.101                                          !
 ! R44   R(24,50)                1.0984                                         !
 ! R45   R(25,51)                1.1032                                         !
 ! R46   R(25,52)                1.0963                                         !
 ! R47   R(25,53)                1.1008                                         !
 ! R48   R(26,60)                1.1026                                         !
 ! R49   R(26,61)                1.0992                                         !
 ! R50   R(26,62)                1.1002                                         !
 ! R51   R(27,54)                1.0981                                         !
 ! R52   R(27,55)                1.103                                          !
 ! R53   R(27,56)                1.1012                                         !
 ! R54   R(28,57)                1.097                                          !
 ! R55   R(28,58)                1.0997                                         !
 ! R56   R(28,59)                1.1031                                         !
 ! R57   R(31,42)                1.1003                                         !
 ! R58   R(31,43)                1.1005                                         !
 ! R59   R(31,44)                1.0997                                         !
 ! R60   R(34,39)                1.1056                                         !
 ! R61   R(34,40)                1.1009                                         !
 ! R62   R(34,41)                1.1007                                         !
 ! R63   R(36,63)                1.1593                                         !
 ! R64   R(37,38)                0.9641                                         !
 ! A1    A(2,1,3)              120.7494                                         !
 ! A2    A(2,1,18)             117.2173                                         !
 ! A3    A(3,1,18)             122.0191                                         !
 ! A4    A(1,2,4)              121.2848                                         !
 ! A5    A(1,2,7)              114.0188                                         !
 ! A6    A(4,2,7)              124.5237                                         !
 ! A7    A(1,3,6)              120.2081                                         !
 ! A8    A(1,3,11)             115.995                                          !
 ! A9    A(6,3,11)             123.7862                                         !
 ! A10   A(2,4,5)              118.8072                                         !
 ! A11   A(2,4,8)              119.9131                                         !
 ! A12   A(5,4,8)              121.2758                                         !
 ! A13   A(4,5,6)              119.2769                                         !
 ! A14   A(4,5,9)              120.4127                                         !
 ! A15   A(6,5,9)              120.3072                                         !
 ! A16   A(3,6,5)              119.5958                                         !
 ! A17   A(3,6,10)             119.5325                                         !
 ! A18   A(5,6,10)             120.8716                                         !
 ! A19   A(2,7,12)             112.5149                                         !
 ! A20   A(2,7,13)             110.8178                                         !
 ! A21   A(2,7,14)             106.7399                                         !
 ! A22   A(12,7,13)            112.2083                                         !
 ! A23   A(12,7,14)            106.1893                                         !
 ! A24   A(13,7,14)            108.0064                                         !
 ! A25   A(3,11,15)            108.9681                                         !
 ! A26   A(3,11,16)            109.518                                          !
 ! A27   A(3,11,17)            111.0963                                         !
 ! A28   A(15,11,16)           104.0043                                         !
 ! A29   A(15,11,17)           107.4802                                         !
 ! A30   A(16,11,17)           115.3687                                         !
 ! A31   A(7,12,19)            110.0181                                         !
 ! A32   A(7,12,21)            108.795                                          !
 ! A33   A(19,12,21)           112.3802                                         !
 ! A34   A(11,16,18)            97.408                                          !
 ! A35   A(11,16,20)           104.3322                                         !
 ! A36   A(11,16,22)           103.6331                                         !
 ! A37   A(18,16,20)           122.385                                          !
 ! A38   A(18,16,22)           115.9703                                         !
 ! A39   A(20,16,22)           109.5983                                         !
 ! A40   A(1,18,16)             82.8042                                         !
 ! A41   A(1,18,29)             89.0848                                         !
 ! A42   A(1,18,36)             93.6339                                         !
 ! A43   A(16,18,29)            88.2465                                         !
 ! A44   A(16,18,36)            95.5126                                         !
 ! A45   A(16,18,37)            98.5567                                         !
 ! A46   A(29,18,37)            87.7013                                         !
 ! A47   A(36,18,37)            89.4869                                         !
 ! A48   A(12,19,30)           106.4601                                         !
 ! A49   A(12,19,31)           116.767                                          !
 ! A50   A(12,19,32)           107.0201                                         !
 ! A51   A(30,19,31)           109.9595                                         !
 ! A52   A(30,19,32)           106.2388                                         !
 ! A53   A(31,19,32)           109.84                                           !
 ! A54   A(16,20,23)           107.0565                                         !
 ! A55   A(16,20,24)           108.5104                                         !
 ! A56   A(16,20,25)           114.0178                                         !
 ! A57   A(23,20,24)           107.047                                          !
 ! A58   A(23,20,25)           108.6547                                         !
 ! A59   A(24,20,25)           111.2469                                         !
 ! A60   A(12,21,33)           105.3647                                         !
 ! A61   A(12,21,34)           113.2303                                         !
 ! A62   A(12,21,35)           109.3821                                         !
 ! A63   A(33,21,34)           109.51                                           !
 ! A64   A(33,21,35)           107.5632                                         !
 ! A65   A(34,21,35)           111.4674                                         !
 ! A66   A(16,22,26)           107.6123                                         !
 ! A67   A(16,22,27)           113.9369                                         !
 ! A68   A(16,22,28)           108.9864                                         !
 ! A69   A(26,22,27)           108.1223                                         !
 ! A70   A(26,22,28)           107.638                                          !
 ! A71   A(27,22,28)           110.3241                                         !
 ! A72   A(20,23,45)           108.4175                                         !
 ! A73   A(20,23,46)           112.5951                                         !
 ! A74   A(20,23,47)           110.7547                                         !
 ! A75   A(45,23,46)           107.2393                                         !
 ! A76   A(45,23,47)           108.8194                                         !
 ! A77   A(46,23,47)           108.8905                                         !
 ! A78   A(20,24,48)           108.7548                                         !
 ! A79   A(20,24,49)           110.5186                                         !
 ! A80   A(20,24,50)           112.9207                                         !
 ! A81   A(48,24,49)           107.8113                                         !
 ! A82   A(48,24,50)           107.3482                                         !
 ! A83   A(49,24,50)           109.3104                                         !
 ! A84   A(20,25,51)           108.7145                                         !
 ! A85   A(20,25,52)           113.5215                                         !
 ! A86   A(20,25,53)           111.7698                                         !
 ! A87   A(51,25,52)           107.4167                                         !
 ! A88   A(51,25,53)           106.8734                                         !
 ! A89   A(52,25,53)           108.2494                                         !
 ! A90   A(22,26,60)           108.4715                                         !
 ! A91   A(22,26,61)           110.8925                                         !
 ! A92   A(22,26,62)           112.5544                                         !
 ! A93   A(60,26,61)           108.213                                          !
 ! A94   A(60,26,62)           107.2797                                         !
 ! A95   A(61,26,62)           109.2708                                         !
 ! A96   A(22,27,54)           112.7237                                         !
 ! A97   A(22,27,55)           108.7731                                         !
 ! A98   A(22,27,56)           112.3575                                         !
 ! A99   A(54,27,55)           107.1398                                         !
 ! A100  A(54,27,56)           108.4523                                         !
 ! A101  A(55,27,56)           107.1161                                         !
 ! A102  A(22,28,57)           112.8874                                         !
 ! A103  A(22,28,58)           109.9876                                         !
 ! A104  A(22,28,59)           108.9381                                         !
 ! A105  A(57,28,58)           108.5557                                         !
 ! A106  A(57,28,59)           107.767                                          !
 ! A107  A(58,28,59)           108.5992                                         !
 ! A108  A(19,31,42)           108.6124                                         !
 ! A109  A(19,31,43)           113.0793                                         !
 ! A110  A(19,31,44)           112.328                                          !
 ! A111  A(42,31,43)           107.041                                          !
 ! A112  A(42,31,44)           107.3778                                         !
 ! A113  A(43,31,44)           108.1213                                         !
 ! A114  A(21,34,39)           108.8093                                         !
 ! A115  A(21,34,40)           112.5965                                         !
 ! A116  A(21,34,41)           108.8288                                         !
 ! A117  A(39,34,40)           110.4765                                         !
 ! A118  A(39,34,41)           108.8863                                         !
 ! A119  A(40,34,41)           107.1623                                         !
 ! A120  A(18,37,38)           105.0515                                         !
 ! A121  L(1,18,37,16,-1)      181.3608                                         !
 ! A122  L(29,18,36,1,-1)      182.7187                                         !
 ! A123  L(18,36,63,5,-1)      177.2384                                         !
 ! A124  L(1,18,37,16,-2)      176.7088                                         !
 ! A125  L(29,18,36,1,-2)      183.4542                                         !
 ! A126  L(18,36,63,5,-2)      184.0799                                         !
 ! D1    D(3,1,2,4)              3.3453                                         !
 ! D2    D(3,1,2,7)           -172.0866                                         !
 ! D3    D(18,1,2,4)          -177.9956                                         !
 ! D4    D(18,1,2,7)             6.5725                                         !
 ! D5    D(2,1,3,6)             -2.4837                                         !
 ! D6    D(2,1,3,11)           176.3697                                         !
 ! D7    D(18,1,3,6)           178.9227                                         !
 ! D8    D(18,1,3,11)           -2.2239                                         !
 ! D9    D(2,1,18,16)         -157.0238                                         !
 ! D10   D(2,1,18,29)          -68.6759                                         !
 ! D11   D(2,1,18,36)          107.8699                                         !
 ! D12   D(3,1,18,16)           21.6171                                         !
 ! D13   D(3,1,18,29)          109.965                                          !
 ! D14   D(3,1,18,36)          -73.4893                                         !
 ! D15   D(2,1,37,38)          -75.2366                                         !
 ! D16   D(3,1,37,38)          101.9646                                         !
 ! D17   D(1,2,4,5)             -1.7867                                         !
 ! D18   D(1,2,4,8)            178.925                                          !
 ! D19   D(7,2,4,5)            173.1477                                         !
 ! D20   D(7,2,4,8)             -6.1407                                         !
 ! D21   D(1,2,7,12)           -37.9105                                         !
 ! D22   D(1,2,7,13)          -164.4478                                         !
 ! D23   D(1,2,7,14)            78.1838                                         !
 ! D24   D(4,2,7,12)           146.8283                                         !
 ! D25   D(4,2,7,13)            20.2909                                         !
 ! D26   D(4,2,7,14)           -97.0775                                         !
 ! D27   D(1,3,6,5)              0.1219                                         !
 ! D28   D(1,3,6,10)          -179.8965                                         !
 ! D29   D(11,3,6,5)          -178.6381                                         !
 ! D30   D(11,3,6,10)            1.3435                                         !
 ! D31   D(1,3,11,15)           89.1295                                         !
 ! D32   D(1,3,11,16)          -24.0319                                         !
 ! D33   D(1,3,11,17)         -152.6386                                         !
 ! D34   D(6,3,11,15)          -92.0627                                         !
 ! D35   D(6,3,11,16)          154.7758                                         !
 ! D36   D(6,3,11,17)           26.1691                                         !
 ! D37   D(2,4,5,6)             -0.5612                                         !
 ! D38   D(2,4,5,9)           -179.9176                                         !
 ! D39   D(8,4,5,6)            178.717                                          !
 ! D40   D(8,4,5,9)             -0.6393                                         !
 ! D41   D(4,5,6,3)              1.3668                                         !
 ! D42   D(4,5,6,10)          -178.6146                                         !
 ! D43   D(9,5,6,3)           -179.2762                                         !
 ! D44   D(9,5,6,10)             0.7425                                         !
 ! D45   D(2,7,12,19)          -73.2471                                         !
 ! D46   D(2,7,12,21)          163.2451                                         !
 ! D47   D(13,7,12,19)          52.5403                                         !
 ! D48   D(13,7,12,21)         -70.9675                                         !
 ! D49   D(14,7,12,19)         170.3288                                         !
 ! D50   D(14,7,12,21)          46.821                                          !
 ! D51   D(3,11,16,18)          34.3654                                         !
 ! D52   D(3,11,16,20)         160.5709                                         !
 ! D53   D(3,11,16,22)         -84.708                                          !
 ! D54   D(15,11,16,18)        -81.9832                                         !
 ! D55   D(15,11,16,20)         44.2223                                         !
 ! D56   D(15,11,16,22)        158.9435                                         !
 ! D57   D(17,11,16,18)        160.5731                                         !
 ! D58   D(17,11,16,20)        -73.2214                                         !
 ! D59   D(17,11,16,22)         41.4998                                         !
 ! D60   D(7,12,19,30)          56.5549                                         !
 ! D61   D(7,12,19,31)         -66.654                                          !
 ! D62   D(7,12,19,32)         169.8452                                         !
 ! D63   D(21,12,19,30)        177.9442                                         !
 ! D64   D(21,12,19,31)         54.7353                                         !
 ! D65   D(21,12,19,32)        -68.7655                                         !
 ! D66   D(7,12,21,33)         -62.0247                                         !
 ! D67   D(7,12,21,34)         178.3153                                         !
 ! D68   D(7,12,21,35)          53.3422                                         !
 ! D69   D(19,12,21,33)        175.8894                                         !
 ! D70   D(19,12,21,34)         56.2294                                         !
 ! D71   D(19,12,21,35)        -68.7437                                         !
 ! D72   D(11,16,18,1)         -26.8329                                         !
 ! D73   D(11,16,18,29)       -116.1316                                         !
 ! D74   D(11,16,18,36)         66.1475                                         !
 ! D75   D(11,16,18,37)        156.4583                                         !
 ! D76   D(20,16,18,1)        -139.047                                          !
 ! D77   D(20,16,18,29)        131.6544                                         !
 ! D78   D(20,16,18,36)        -46.0665                                         !
 ! D79   D(20,16,18,37)         44.2443                                         !
 ! D80   D(22,16,18,1)          82.2973                                         !
 ! D81   D(22,16,18,29)         -7.0013                                         !
 ! D82   D(22,16,18,36)        175.2778                                         !
 ! D83   D(22,16,18,37)        -94.4115                                         !
 ! D84   D(11,16,20,23)        -81.1943                                         !
 ! D85   D(11,16,20,24)        163.5858                                         !
 ! D86   D(11,16,20,25)         39.005                                          !
 ! D87   D(18,16,20,23)         27.4464                                         !
 ! D88   D(18,16,20,24)        -87.7734                                         !
 ! D89   D(18,16,20,25)        147.6458                                         !
 ! D90   D(22,16,20,23)        168.367                                          !
 ! D91   D(22,16,20,24)         53.1472                                         !
 ! D92   D(22,16,20,25)        -71.4337                                         !
 ! D93   D(11,16,22,26)         49.9267                                         !
 ! D94   D(11,16,22,27)        -69.9393                                         !
 ! D95   D(11,16,22,28)        166.3768                                         !
 ! D96   D(18,16,22,26)        -55.4825                                         !
 ! D97   D(18,16,22,27)       -175.3486                                         !
 ! D98   D(18,16,22,28)         60.9675                                         !
 ! D99   D(20,16,22,26)        160.8268                                         !
 ! D100  D(20,16,22,27)         40.9608                                         !
 ! D101  D(20,16,22,28)        -82.7231                                         !
 ! D102  D(16,18,37,38)         80.4825                                         !
 ! D103  D(29,18,37,38)         -7.3965                                         !
 ! D104  D(36,18,37,38)        175.98                                           !
 ! D105  D(12,19,31,42)        178.7004                                         !
 ! D106  D(12,19,31,43)         60.0388                                         !
 ! D107  D(12,19,31,44)        -62.6786                                         !
 ! D108  D(30,19,31,42)         57.3131                                         !
 ! D109  D(30,19,31,43)        -61.3485                                         !
 ! D110  D(30,19,31,44)        175.9341                                         !
 ! D111  D(32,19,31,42)        -59.2588                                         !
 ! D112  D(32,19,31,43)       -177.9204                                         !
 ! D113  D(32,19,31,44)         59.3622                                         !
 ! D114  D(16,20,23,45)       -178.3948                                         !
 ! D115  D(16,20,23,46)         63.1213                                         !
 ! D116  D(16,20,23,47)        -59.0682                                         !
 ! D117  D(24,20,23,45)        -62.2002                                         !
 ! D118  D(24,20,23,46)        179.3159                                         !
 ! D119  D(24,20,23,47)         57.1264                                         !
 ! D120  D(25,20,23,45)         58.0367                                         !
 ! D121  D(25,20,23,46)        -60.4472                                         !
 ! D122  D(25,20,23,47)        177.3633                                         !
 ! D123  D(16,20,24,48)        169.2029                                         !
 ! D124  D(16,20,24,49)         51.039                                          !
 ! D125  D(16,20,24,50)        -71.754                                          !
 ! D126  D(23,20,24,48)         53.9769                                         !
 ! D127  D(23,20,24,49)        -64.187                                          !
 ! D128  D(23,20,24,50)        173.02                                           !
 ! D129  D(25,20,24,48)        -64.5901                                         !
 ! D130  D(25,20,24,49)        177.246                                          !
 ! D131  D(25,20,24,50)         54.4531                                         !
 ! D132  D(16,20,25,51)       -178.4073                                         !
 ! D133  D(16,20,25,52)         62.113                                          !
 ! D134  D(16,20,25,53)        -60.6786                                         !
 ! D135  D(23,20,25,51)        -59.1089                                         !
 ! D136  D(23,20,25,52)       -178.5886                                         !
 ! D137  D(23,20,25,53)         58.6198                                         !
 ! D138  D(24,20,25,51)         58.4876                                         !
 ! D139  D(24,20,25,52)        -60.9921                                         !
 ! D140  D(24,20,25,53)        176.2163                                         !
 ! D141  D(12,21,34,39)         54.3533                                         !
 ! D142  D(12,21,34,40)        -68.4697                                         !
 ! D143  D(12,21,34,41)        172.871                                          !
 ! D144  D(33,21,34,39)        -62.9038                                         !
 ! D145  D(33,21,34,40)        174.2732                                         !
 ! D146  D(33,21,34,41)         55.6139                                         !
 ! D147  D(35,21,34,39)        178.1925                                         !
 ! D148  D(35,21,34,40)         55.3695                                         !
 ! D149  D(35,21,34,41)        -63.2899                                         !
 ! D150  D(16,22,26,60)        173.0686                                         !
 ! D151  D(16,22,26,61)         54.3685                                         !
 ! D152  D(16,22,26,62)        -68.3868                                         !
 ! D153  D(27,22,26,60)        -63.4409                                         !
 ! D154  D(27,22,26,61)        177.859                                          !
 ! D155  D(27,22,26,62)         55.1038                                         !
 ! D156  D(28,22,26,60)         55.7385                                         !
 ! D157  D(28,22,26,61)        -62.9616                                         !
 ! D158  D(28,22,26,62)        174.2831                                         !
 ! D159  D(16,22,27,54)        -67.7758                                         !
 ! D160  D(16,22,27,55)        173.5514                                         !
 ! D161  D(16,22,27,56)         55.1324                                         !
 ! D162  D(26,22,27,54)        172.6462                                         !
 ! D163  D(26,22,27,55)         53.9734                                         !
 ! D164  D(26,22,27,56)        -64.4456                                         !
 ! D165  D(28,22,27,54)         55.1813                                         !
 ! D166  D(28,22,27,55)        -63.4915                                         !
 ! D167  D(28,22,27,56)        178.0895                                         !
 ! D168  D(16,22,28,57)         66.9166                                         !
 ! D169  D(16,22,28,58)        -54.4901                                         !
 ! D170  D(16,22,28,59)       -173.4117                                         !
 ! D171  D(26,22,28,57)       -176.6498                                         !
 ! D172  D(26,22,28,58)         61.9436                                         !
 ! D173  D(26,22,28,59)        -56.9781                                         !
 ! D174  D(27,22,28,57)        -58.8862                                         !
 ! D175  D(27,22,28,58)        179.7071                                         !
 ! D176  D(27,22,28,59)         60.7855                                         !
 --------------------------------------------------------------------------------
 Stoichiometry    C20H37N2O2PRu
 Framework group  C1[X(C20H37N2O2PRu)]
 Deg. of freedom   183
 Full point group                 C1      NOp   1
 Largest Abelian subgroup         C1      NOp   1
 Largest concise Abelian subgroup C1      NOp   1
                         Standard orientation:                         
 ---------------------------------------------------------------------
 Center     Atomic      Atomic             Coordinates (Angstroms)
 Number     Number       Type             X           Y           Z
 ---------------------------------------------------------------------
      1          7           0        0.715656    1.371023    0.249671
      2          6           0        1.886008    1.906882   -0.149435
      3          6           0       -0.222029    2.132844    0.858485
      4          6           0        2.196848    3.235625    0.110326
      5          6           0        1.256948    4.029576    0.764424
      6          6           0        0.032577    3.475574    1.127837
      7          6           0        2.733219    0.980671   -0.969136
      8          1           0        3.158020    3.641555   -0.207540
      9          1           0        1.473201    5.077097    0.980437
     10          1           0       -0.730598    4.079156    1.620651
     11          6           0       -1.518310    1.447426    1.182178
     12          7           0        2.668004   -0.413822   -0.493688
     13          1           0        3.771126    1.351623   -1.033188
     14          1           0        2.308575    0.978717   -1.986631
     15          1           0       -1.442968    0.992425    2.185446
     16         15           0       -1.756562   -0.023851    0.031283
     17          1           0       -2.351191    2.166425    1.206960
     18         44           0        0.413459   -0.611379   -0.142549
     19          6           0        3.426902   -0.554438    0.772617
     20          6           0       -3.038648   -1.112674    0.918401
     21          6           0        3.179474   -1.305851   -1.559696
     22          6           0       -2.541994    0.748245   -1.530011
     23          6           0       -2.285112   -1.924158    1.972894
     24          6           0       -3.610646   -2.110504   -0.091374
     25          6           0       -4.151961   -0.324935    1.610733
     26          6           0       -1.685627    1.953761   -1.932091
     27          6           0       -3.977452    1.231273   -1.327701
     28          6           0       -2.478986   -0.267568   -2.673566
     29          1           0        0.328041   -0.248448   -1.772017
     30          1           0        2.994173    0.171316    1.477730
     31          6           0        4.934633   -0.365348    0.692583
     32          1           0        3.197228   -1.548357    1.175913
     33          1           0        2.496492   -1.165106   -2.409998
     34          6           0        3.195084   -2.765662   -1.160121
     35          1           0        4.184434   -0.961252   -1.877144
     36          6           0        0.609458   -1.124660    1.674064
     37          8           0        0.151964   -2.615054   -0.660953
     38          1           0       -0.040770   -2.606172   -1.605533
     39          1           0        2.182674   -3.053451   -0.821695
     40          1           0        3.938735   -2.982156   -0.377729
     41          1           0        3.462609   -3.371727   -2.039127
     42          1           0        5.356400   -0.474643    1.702969
     43          1           0        5.225658    0.631276    0.327692
     44          1           0        5.416724   -1.118287    0.052199
     45          1           0       -3.004697   -2.586540    2.482672
     46          1           0       -1.823356   -1.290100    2.743512
     47          1           0       -1.504964   -2.541165    1.505364
     48          1           0       -4.203420   -2.864838    0.452410
     49          1           0       -2.798424   -2.635663   -0.617466
     50          1           0       -4.275889   -1.639917   -0.827975
     51          1           0       -4.825867   -1.035945    2.117994
     52          1           0       -4.761702    0.269575    0.920357
     53          1           0       -3.754649    0.347583    2.386352
     54          1           0       -4.683284    0.406413   -1.162646
     55          1           0       -4.304891    1.762179   -2.237447
     56          1           0       -4.066834    1.939523   -0.489266
     57          1           0       -3.113477   -1.145471   -2.499851
     58          1           0       -1.443167   -0.607444   -2.817771
     59          1           0       -2.822654    0.217574   -3.602701
     60          1           0       -2.051231    2.334699   -2.900005
     61          1           0       -0.632348    1.663552   -2.052818
     62          1           0       -1.754002    2.779983   -1.208836
     63          8           0        0.813609   -1.396498    2.782362
 ---------------------------------------------------------------------
 Rotational constants (GHZ):           0.2568155           0.1608130           0.1343806
 General basis read from cards:  (5D, 7F)
 ======================================================================================================
                                       Pseudopotential Parameters
 ======================================================================================================
  Center     Atomic      Valence      Angular      Power
  Number     Number     Electrons     Momentum     of R      Exponent        Coefficient   SO-Coeffient
 ======================================================================================================
    1          7
                                   No pseudopotential on this center.
    2          6
                                   No pseudopotential on this center.
    3          6
                                   No pseudopotential on this center.
    4          6
                                   No pseudopotential on this center.
    5          6
                                   No pseudopotential on this center.
    6          6
                                   No pseudopotential on this center.
    7          6
                                   No pseudopotential on this center.
    8          1
                                   No pseudopotential on this center.
    9          1
                                   No pseudopotential on this center.
   10          1
                                   No pseudopotential on this center.
   11          6
                                   No pseudopotential on this center.
   12          7
                                   No pseudopotential on this center.
   13          1
                                   No pseudopotential on this center.
   14          1
                                   No pseudopotential on this center.
   15          1
                                   No pseudopotential on this center.
   16         15
                                   No pseudopotential on this center.
   17          1
                                   No pseudopotential on this center.
   18         44           16
                                      G and up 
                                                     2        1.0000000        0.00000000    0.00000000
                                      S - G
                                                     2       11.1052690      209.82297100    0.00000000
                                                     2        5.4147450       30.65472600    0.00000000
                                      P - G
                                                     2        9.7712710      146.33618200    0.00000000
                                                     2        5.0739910       24.12787700    0.00000000
                                      D - G
                                                     2        7.6714230       67.51589700    0.00000000
                                                     2        4.1365650        9.87010400    0.00000000
                                      F - G
                                                     2       11.3600000      -28.34061600    0.00000000
                                                     2        5.6800000       -4.94462900    0.00000000
   19          6
                                   No pseudopotential on this center.
   20          6
                                   No pseudopotential on this center.
   21          6
                                   No pseudopotential on this center.
   22          6
                                   No pseudopotential on this center.
   23          6
                                   No pseudopotential on this center.
   24          6
                                   No pseudopotential on this center.
   25          6
                                   No pseudopotential on this center.
   26          6
                                   No pseudopotential on this center.
   27          6
                                   No pseudopotential on this center.
   28          6
                                   No pseudopotential on this center.
   29          1
                                   No pseudopotential on this center.
   30          1
                                   No pseudopotential on this center.
   31          6
                                   No pseudopotential on this center.
   32          1
                                   No pseudopotential on this center.
   33          1
                                   No pseudopotential on this center.
   34          6
                                   No pseudopotential on this center.
   35          1
                                   No pseudopotential on this center.
   36          6
                                   No pseudopotential on this center.
   37          8
                                   No pseudopotential on this center.
   38          1
                                   No pseudopotential on this center.
   39          1
                                   No pseudopotential on this center.
   40          1
                                   No pseudopotential on this center.
   41          1
                                   No pseudopotential on this center.
   42          1
                                   No pseudopotential on this center.
   43          1
                                   No pseudopotential on this center.
   44          1
                                   No pseudopotential on this center.
   45          1
                                   No pseudopotential on this center.
   46          1
                                   No pseudopotential on this center.
   47          1
                                   No pseudopotential on this center.
   48          1
                                   No pseudopotential on this center.
   49          1
                                   No pseudopotential on this center.
   50          1
                                   No pseudopotential on this center.
   51          1
                                   No pseudopotential on this center.
   52          1
                                   No pseudopotential on this center.
   53          1
                                   No pseudopotential on this center.
   54          1
                                   No pseudopotential on this center.
   55          1
                                   No pseudopotential on this center.
   56          1
                                   No pseudopotential on this center.
   57          1
                                   No pseudopotential on this center.
   58          1
                                   No pseudopotential on this center.
   59          1
                                   No pseudopotential on this center.
   60          1
                                   No pseudopotential on this center.
   61          1
                                   No pseudopotential on this center.
   62          1
                                   No pseudopotential on this center.
   63          8
                                   No pseudopotential on this center.
 ======================================================================================================
 There are  1473 symmetry adapted cartesian basis functions of A   symmetry.
 There are  1308 symmetry adapted basis functions of A   symmetry.
  1308 basis functions,  2037 primitive gaussians,  1473 cartesian basis functions
   109 alpha electrons      109 beta electrons
       nuclear repulsion energy      3248.8855210798 Hartrees.
 NAtoms=   63 NActive=   63 NUniq=   63 SFac= 1.00D+00 NAtFMM=   60 NAOKFM=T Big=T
 Integral buffers will be    131072 words long.
 Raffenetti 2 integral format.
 Two-electron integral symmetry is turned on.
 Nuclear repulsion after empirical dispersion term =     3248.7914491536 Hartrees.
 ------------------------------------------------------------------------------
 Polarizable Continuum Model (PCM)
 =================================
 Model                : PCM.
 Atomic radii         : SMD-Coulomb.
 Polarization charges : Total charges.
 Charge compensation  : None.
 Solution method      : On-the-fly selection.
 Cavity type          : VdW (van der Waals Surface) (Alpha=1.000).
 Cavity algorithm     : GePol (No added spheres)
                        Default sphere list used, NSphG=   63.
                        Lebedev-Laikov grids with approx.  5.0 points / Ang**2.
                        Smoothing algorithm: York/Karplus (Gamma=1.0000).
                        Polarization charges: spherical gaussians, with
                                              point-specific exponents (IZeta= 3).
                        Self-potential: point-specific (ISelfS= 7).
                        Self-field    : sphere-specific E.n sum rule (ISelfD= 2).
 Solvent              : Water, Eps=  78.355300 Eps(inf)=   1.777849
 ------------------------------------------------------------------------------
 ------------------------------------------------------------------------------
 Atomic radii for non-electrostatic terms: SMD-CDS.
 ------------------------------------------------------------------------------
 Nuclear repulsion after PCM non-electrostatic terms =     3248.8088205425 Hartrees.
 One-electron integrals computed using PRISM.
   1 Symmetry operations used in ECPInt.
 ECPInt:  NShTT=  119316 NPrTT=  422118 LenC2=  102923 LenP2D=  239323.
 LDataN:  DoStor=T MaxTD1= 7 Len=  274
 Number of processors reduced to  11 by ecpmxn.
 NBasis=  1308 RedAO= T EigKep=  3.92D-05  NBF=  1308
 NBsUse=  1308 1.00D-06 EigRej= -1.00D+00 NBFU=  1308
 Defaulting to unpruned grid for atomic number  44.
 ExpMin= 1.60D-02 ExpMax= 3.12D+05 ExpMxC= 9.87D+02 IAcc=3 IRadAn=         5 AccDes= 0.00D+00
 Harris functional with IExCor= 1009 and IRadAn=       5 diagonalized for initial guess.
 HarFok:  IExCor= 1009 AccDes= 0.00D+00 IRadAn=         5 IDoV= 1 UseB2=F ITyADJ=14
 ICtDFT=  3500011 ScaDFX=  1.000000  1.000000  1.000000  1.000000
 Defaulting to unpruned grid for atomic number  44.
 FoFCou: FMM=F IPFlag=           0 FMFlag=      100000 FMFlg1=        2001
         NFxFlg=           0 DoJE=T BraDBF=F KetDBF=T FulRan=T
         wScrn=  0.000000 ICntrl=       500 IOpCl=  0 I1Cent=   200000004 NGrid=           0
         NMat0=    1 NMatS0=      1 NMatT0=    0 NMatD0=    1 NMtDS0=    0 NMtDT0=    0
 Petite list used in FoFCou.
 Requested convergence on RMS density matrix=1.00D-08 within 128 cycles.
 Requested convergence on MAX density matrix=1.00D-06.
 Requested convergence on             energy=1.00D-06.
 No special actions if energy rises.
 Defaulting to unpruned grid for atomic number  44.
 Defaulting to unpruned grid for atomic number  44.
 Defaulting to unpruned grid for atomic number  44.
 Defaulting to unpruned grid for atomic number  44.
 Defaulting to unpruned grid for atomic number  44.
 Defaulting to unpruned grid for atomic number  44.
 Defaulting to unpruned grid for atomic number  44.
 Defaulting to unpruned grid for atomic number  44.
 Defaulting to unpruned grid for atomic number  44.
 Defaulting to unpruned grid for atomic number  44.
 Defaulting to unpruned grid for atomic number  44.
 Defaulting to unpruned grid for atomic number  44.
 Defaulting to unpruned grid for atomic number  44.
 Defaulting to unpruned grid for atomic number  44.
 Defaulting to unpruned grid for atomic number  44.
 Defaulting to unpruned grid for atomic number  44.
 Inv3:  Mode=1 IEnd=    47235072.
 Iteration    1 A*A^-1 deviation from unit magnitude is 9.88D-15 for   3057.
 Iteration    1 A*A^-1 deviation from orthogonality  is 2.74D-15 for   2114   1602.
 Iteration    1 A^-1*A deviation from unit magnitude is 9.88D-15 for   3057.
 Iteration    1 A^-1*A deviation from orthogonality  is 2.97D-14 for   3753   3725.
 EnCoef did     3 forward-backward iterations
 Error on total polarization charges =  0.07929
 SCF Done:  E(RPBE1PBE) =  -1479.79302666     A.U. after   17 cycles
            NFock= 17  Conv=0.29D-08     -V/T= 2.0493
 SMD-CDS (non-electrostatic) energy       (kcal/mol) =      10.90
 (included in total energy above)
 DoSCS=F DFT=T ScalE2(SS,OS)=  1.000000  1.000000
 Range of M.O.s used for correlation:     1  1308
 NBasis=  1308 NAE=   109 NBE=   109 NFC=     0 NFV=     0
 NROrb=   1308 NOA=   109 NOB=   109 NVA=  1199 NVB=  1199

 **** Warning!!: The largest alpha MO coefficient is  0.22896582D+02

 NEqPCM:  Using equilibrium solvation (IEInf=0, Eps=  78.3553, EpsInf=   1.7778)
          Differentiating once with respect to magnetic field using GIAOs.
          Electric field/nuclear overlap derivatives assumed to be zero.
 Defaulting to unpruned grid for atomic number  44.
   1 Symmetry operations used in ECPInt.
 ECPInt:  NShTT=  119316 NPrTT=  422118 LenC2=  119317 LenP2D=  422118.
 LDataN:  DoStor=T MaxTD1= 8 Len=  415
 Number of processors reduced to   7 by ecpmxn.
 FoFJK:  IHMeth= 1 ICntrl=    6127 DoSepK=F KAlg= 0 I1Cent=           0 FoldK=F
 IRaf=         1 NMat=       1 IRICut=       1 DoRegI=T DoRafI=F ISym2E= 0 IDoP0=0 IntGTp=1.
 Defaulting to unpruned grid for atomic number  44.
 Defaulting to unpruned grid for atomic number  44.
 Defaulting to unpruned grid for atomic number  44.
 Defaulting to unpruned grid for atomic number  44.
 Defaulting to unpruned grid for atomic number  44.
 Defaulting to unpruned grid for atomic number  44.
 Defaulting to unpruned grid for atomic number  44.
 Defaulting to unpruned grid for atomic number  44.
 Defaulting to unpruned grid for atomic number  44.
 Defaulting to unpruned grid for atomic number  44.
 Defaulting to unpruned grid for atomic number  44.
 Defaulting to unpruned grid for atomic number  44.
 Defaulting to unpruned grid for atomic number  44.
 Defaulting to unpruned grid for atomic number  44.
 Defaulting to unpruned grid for atomic number  44.
 Defaulting to unpruned grid for atomic number  44.
          There are     3 degrees of freedom in the 1st order CPHF.  IDoFFX=0 NUNeed=     3.
      3 vectors produced by pass  0 Test12= 4.36D-12 3.33D-08 XBig12= 8.26D+01 1.84D+00.
 AX will form     3 AO Fock derivatives at one time.
      3 vectors produced by pass  1 Test12= 4.36D-12 3.33D-08 XBig12= 5.30D-01 3.43D-01.
      3 vectors produced by pass  2 Test12= 4.36D-12 3.33D-08 XBig12= 1.06D-02 3.69D-02.
      3 vectors produced by pass  3 Test12= 4.36D-12 3.33D-08 XBig12= 7.36D-05 2.20D-03.
      3 vectors produced by pass  4 Test12= 4.36D-12 3.33D-08 XBig12= 4.74D-07 2.55D-04.
      3 vectors produced by pass  5 Test12= 4.36D-12 3.33D-08 XBig12= 5.43D-09 3.06D-05.
      3 vectors produced by pass  6 Test12= 4.36D-12 3.33D-08 XBig12= 5.66D-11 1.97D-06.
      3 vectors produced by pass  7 Test12= 4.36D-12 3.33D-08 XBig12= 3.23D-13 1.14D-07.
 InvSVY:  IOpt=1 It=  1 EMax= 2.12D-16
 Solved reduced A of dimension    24 with     3 vectors.
 Calculating GIAO nuclear magnetic shielding tensors.
 SCF GIAO Magnetic shielding tensor (ppm):
      1  N    Isotropic =   -43.6123   Anisotropy =   406.4671
   XX=  -108.3269   YX=   -46.9271   ZX=   153.0515
   XY=   -32.0480   YY=  -129.7633   ZY=   -79.7704
   XZ=   186.8501   YZ=   -99.4243   ZZ=   107.2534
   Eigenvalues:  -203.2597  -154.9430   227.3658
      2  C    Isotropic =    20.9219   Anisotropy =   167.0392
   XX=   -18.9912   YX=    17.6051   ZX=    82.7226
   XY=     0.4354   YY=     4.9350   ZY=   -44.3440
   XZ=    71.8503   YZ=   -54.8849   ZZ=    76.8219
   Eigenvalues:   -76.0152     6.4997   132.2814
      3  C    Isotropic =    18.0403   Anisotropy =   176.4808
   XX=   -49.5364   YX=   -33.9090   ZX=    68.4531
   XY=   -19.7330   YY=     3.6319   ZY=   -27.1965
   XZ=    75.4026   YZ=   -14.9611   ZZ=   100.0253
   Eigenvalues:   -82.0584     0.4851   135.6941
      4  C    Isotropic =    64.0729   Anisotropy =   167.5871
   XX=     5.8194   YX=   -45.3040   ZX=    64.5401
   XY=   -54.7260   YY=    48.3915   ZY=   -13.5700
   XZ=    63.9566   YZ=   -26.6439   ZZ=   138.0078
   Eigenvalues:   -38.9561    55.3772   175.7977
      5  C    Isotropic =    47.1639   Anisotropy =   201.1212
   XX=    43.1952   YX=   -30.4090   ZX=    52.1512
   XY=   -31.5471   YY=   -44.9465   ZY=   -52.6415
   XZ=    52.8321   YZ=   -49.5874   ZZ=   143.2431
   Eigenvalues:   -61.2299    21.4769   181.2447
      6  C    Isotropic =    61.9824   Anisotropy =   166.5992
   XX=    32.9181   YX=    23.2172   ZX=    66.9665
   XY=    30.9918   YY=    23.7879   ZY=   -54.4801
   XZ=    73.4700   YZ=   -43.1581   ZZ=   129.2411
   Eigenvalues:   -40.5660    53.4646   173.0485
      7  C    Isotropic =   121.5833   Anisotropy =    49.7032
   XX=   108.3064   YX=    -8.2158   ZX=   -10.2640
   XY=    -4.5386   YY=   153.7428   ZY=    -5.0177
   XZ=   -11.3175   YZ=    -2.3902   ZZ=   102.7006
   Eigenvalues:    93.5747   116.4564   154.7187
      8  H    Isotropic =    23.6831   Anisotropy =     7.2384
   XX=    22.9666   YX=    -0.3408   ZX=    -1.2639
   XY=    -0.5878   YY=    27.6156   ZY=     2.4848
   XZ=    -1.3217   YZ=     2.4412   ZZ=    20.4670
   Eigenvalues:    19.3600    23.1805    28.5087
      9  H    Isotropic =    23.3911   Anisotropy =     4.1759
   XX=    25.4039   YX=     0.5238   ZX=    -2.0804
   XY=     0.4099   YY=    23.8254   ZY=     1.2997
   XZ=    -1.9325   YZ=     1.4216   ZZ=    20.9440
   Eigenvalues:    19.6761    24.3222    26.1751
     10  H    Isotropic =    23.5912   Anisotropy =     8.3178
   XX=    24.0602   YX=     3.3832   ZX=    -0.8000
   XY=     3.3773   YY=    26.7758   ZY=     1.7014
   XZ=    -0.6679   YZ=     1.2733   ZZ=    19.9377
   Eigenvalues:    19.0952    22.5420    29.1364
     11  C    Isotropic =   145.7525   Anisotropy =    29.6861
   XX=   156.8167   YX=    15.5225   ZX=    -7.6405
   XY=     5.0697   YY=   151.2132   ZY=    13.0374
   XZ=   -20.9322   YZ=    10.0530   ZZ=   129.2275
   Eigenvalues:   116.8228   154.8914   165.5432
     12  N    Isotropic =   201.8588   Anisotropy =    62.2794
   XX=   180.5966   YX=   -12.4301   ZX=    -8.7841
   XY=   -14.9743   YY=   239.0540   ZY=     8.6827
   XZ=     8.5225   YZ=     8.7682   ZZ=   185.9257
   Eigenvalues:   177.1358   185.0622   243.3784
     13  H    Isotropic =    26.7750   Anisotropy =     8.0522
   XX=    28.3839   YX=     2.0010   ZX=    -0.4263
   XY=     3.4841   YY=    29.5019   ZY=    -1.7909
   XZ=    -1.0578   YZ=    -2.0747   ZZ=    22.4392
   Eigenvalues:    21.9446    26.2372    32.1432
     14  H    Isotropic =    26.9790   Anisotropy =     4.2736
   XX=    25.8723   YX=    -0.8367   ZX=     1.8453
   XY=     0.0416   YY=    26.7231   ZY=    -3.8014
   XZ=     0.2535   YZ=     0.1638   ZZ=    28.3416
   Eigenvalues:    25.3245    25.7845    29.8280
     15  H    Isotropic =    27.8122   Anisotropy =     4.7977
   XX=    25.0805   YX=     2.1811   ZX=    -0.3155
   XY=     1.7278   YY=    27.4949   ZY=     0.5775
   XZ=    -1.4136   YZ=    -0.5267   ZZ=    30.8611
   Eigenvalues:    23.9054    28.5205    31.0106
     16  P    Isotropic =   194.6280   Anisotropy =   251.8685
   XX=   335.6275   YX=   -31.0394   ZX=   -41.2083
   XY=   -97.2745   YY=   132.2261   ZY=   -16.6695
   XZ=   -57.6992   YZ=     0.3548   ZZ=   116.0302
   Eigenvalues:    89.2555   132.0881   362.5403
     17  H    Isotropic =    27.5344   Anisotropy =     8.4874
   XX=    28.2698   YX=    -1.7395   ZX=    -1.1565
   XY=    -2.4291   YY=    30.6685   ZY=     3.1957
   XZ=    -0.8630   YZ=     3.7726   ZZ=    23.6649
   Eigenvalues:    22.2234    27.1872    33.1927
     18  Ru   Isotropic =  -525.3973   Anisotropy =   267.5306
   XX=  -472.9306   YX=    48.6642   ZX=   -29.0609
   XY=    29.7546   YY=  -388.3503   ZY=    99.7714
   XZ=   -31.5256   YZ=   123.9483   ZZ=  -714.9109
   Eigenvalues:  -755.4115  -473.7368  -347.0435
     19  C    Isotropic =   135.3484   Anisotropy =    44.4385
   XX=   152.8303   YX=     1.1351   ZX=    14.5814
   XY=     7.3203   YY=   101.6044   ZY=    -6.7872
   XZ=    10.4483   YZ=   -12.6712   ZZ=   151.6106
   Eigenvalues:    98.9657   142.1055   164.9741
     20  C    Isotropic =   145.5955   Anisotropy =    25.7604
   XX=   151.1998   YX=     9.5915   ZX=    -6.0727
   XY=    10.1522   YY=   139.5555   ZY=    -9.8466
   XZ=    -3.9417   YZ=   -10.9687   ZZ=   146.0311
   Eigenvalues:   130.3993   143.6180   162.7691
     21  C    Isotropic =   130.7779   Anisotropy =    54.7440
   XX=   110.9423   YX=   -13.3445   ZX=   -14.3562
   XY=   -14.8710   YY=   138.4394   ZY=    19.6197
   XZ=   -16.3263   YZ=    17.8478   ZZ=   142.9519
   Eigenvalues:   103.2268   121.8329   167.2739
     22  C    Isotropic =   146.3720   Anisotropy =    24.1028
   XX=   143.4354   YX=     0.2858   ZX=     8.5607
   XY=     0.5471   YY=   144.6484   ZY=    -9.4031
   XZ=    14.8456   YZ=    -8.3978   ZZ=   151.0321
   Eigenvalues:   132.0637   144.6117   162.4405
     23  C    Isotropic =   151.4338   Anisotropy =    38.9580
   XX=   159.2408   YX=    -7.9621   ZX=    10.6194
   XY=   -13.1729   YY=   143.3743   ZY=   -14.2706
   XZ=    12.7514   YZ=   -17.1913   ZZ=   151.6862
   Eigenvalues:   131.1843   145.7113   177.4058
     24  C    Isotropic =   158.3566   Anisotropy =    30.2695
   XX=   150.2764   YX=     7.0792   ZX=     9.9290
   XY=     8.9120   YY=   159.6092   ZY=    12.9035
   XZ=     6.3011   YZ=     9.6100   ZZ=   165.1840
   Eigenvalues:   145.4703   151.0632   178.5362
     25  C    Isotropic =   161.4069   Anisotropy =    37.7107
   XX=   169.7018   YX=   -16.0385   ZX=   -13.0908
   XY=   -11.2461   YY=   158.8099   ZY=     5.9848
   XZ=   -14.2351   YZ=     8.2021   ZZ=   155.7090
   Eigenvalues:   147.0811   150.5922   186.5474
     26  C    Isotropic =   159.3116   Anisotropy =    40.8115
   XX=   157.5150   YX=    22.0522   ZX=    -4.0311
   XY=    19.8889   YY=   168.3273   ZY=   -11.6631
   XZ=     0.7481   YZ=    -6.3626   ZZ=   152.0926
   Eigenvalues:   139.6409   151.7747   186.5193
     27  C    Isotropic =   160.9075   Anisotropy =    30.1888
   XX=   177.8728   YX=    -3.4799   ZX=   -10.9240
   XY=    -7.4646   YY=   152.4142   ZY=    -1.0240
   XZ=    -5.2137   YZ=    -2.1681   ZZ=   152.4356
   Eigenvalues:   147.7339   153.9553   181.0334
     28  C    Isotropic =   160.6823   Anisotropy =    35.1959
   XX=   144.5742   YX=    -1.5098   ZX=     1.0833
   XY=     0.1617   YY=   164.5246   ZY=    14.5263
   XZ=    -1.3479   YZ=    15.1063   ZZ=   172.9480
   Eigenvalues:   144.5437   153.3569   184.1462
     29  H    Isotropic =    31.0899   Anisotropy =    23.0321
   XX=    46.0458   YX=    -1.0311   ZX=    -1.6318
   XY=    -1.3969   YY=    35.8891   ZY=     5.3712
   XZ=    -2.5956   YZ=     7.3680   ZZ=    11.3348
   Eigenvalues:     9.6948    37.1303    46.4446
     30  H    Isotropic =    28.5476   Anisotropy =     5.5538
   XX=    31.6664   YX=    -3.0054   ZX=    -0.5877
   XY=    -1.3119   YY=    23.7888   ZY=     1.4745
   XZ=     0.2975   YZ=    -0.5803   ZZ=    30.1875
   Eigenvalues:    23.2134    30.1792    32.2501
     31  C    Isotropic =   181.3269   Anisotropy =    15.1662
   XX=   191.3567   YX=     1.0348   ZX=    -2.0829
   XY=    -0.0616   YY=   173.9703   ZY=    -2.1035
   XZ=     0.2959   YZ=    -0.1697   ZZ=   178.6535
   Eigenvalues:   173.7047   178.8382   191.4376
     32  H    Isotropic =    27.5448   Anisotropy =     5.5239
   XX=    28.7386   YX=     1.0836   ZX=     0.0117
   XY=     2.0504   YY=    25.8813   ZY=    -2.1972
   XZ=    -0.5225   YZ=    -4.9355   ZZ=    28.0145
   Eigenvalues:    23.0062    28.4008    31.2274
     33  H    Isotropic =    27.6232   Anisotropy =     4.7658
   XX=    26.8800   YX=    -1.8246   ZX=     0.7439
   XY=    -2.3074   YY=    25.8943   ZY=     1.7114
   XZ=     2.5519   YZ=     0.4616   ZZ=    30.0953
   Eigenvalues:    23.7066    28.3626    30.8004
     34  C    Isotropic =   176.2429   Anisotropy =    13.8377
   XX=   171.3253   YX=    -0.7621   ZX=    -5.0960
   XY=     1.2834   YY=   185.3968   ZY=    -1.1220
   XZ=    -4.7441   YZ=    -0.4646   ZZ=   172.0067
   Eigenvalues:   166.7276   176.5331   185.4681
     35  H    Isotropic =    28.0203   Anisotropy =     8.0192
   XX=    29.7369   YX=     0.5375   ZX=    -3.4623
   XY=    -0.7224   YY=    26.2128   ZY=     1.4788
   XZ=    -5.1431   YZ=     0.4046   ZZ=    28.1113
   Eigenvalues:    24.3063    26.3882    33.3665
     36  C    Isotropic =   -33.6388   Anisotropy =   429.3950
   XX=  -156.4466   YX=   -15.5364   ZX=    62.8492
   XY=   -13.8956   YY=  -159.6699   ZY=   -94.9082
   XZ=    67.4164   YZ=  -111.4962   ZZ=   215.2002
   Eigenvalues:  -186.4012  -167.1396   252.6246
     37  O    Isotropic =   480.8831   Anisotropy =   238.0683
   XX=   522.0870   YX=   -54.3571   ZX=     9.1210
   XY=   -39.5663   YY=   302.1245   ZY=  -102.3298
   XZ=     8.9495   YZ=   -51.9603   ZZ=   618.4379
   Eigenvalues:   276.4947   526.5594   639.5953
     38  H    Isotropic =    35.4830   Anisotropy =    24.7840
   XX=    24.7809   YX=    -0.1339   ZX=     5.7448
   XY=    -1.7880   YY=    31.1050   ZY=    -1.1022
   XZ=     5.9242   YZ=    -2.4917   ZZ=    50.5630
   Eigenvalues:    23.4801    30.9632    52.0057
     39  H    Isotropic =    27.2493   Anisotropy =    15.7919
   XX=    37.0031   YX=     1.2769   ZX=    -2.8464
   XY=     1.1556   YY=    25.0781   ZY=    -0.4125
   XZ=    -3.9668   YZ=    -0.4858   ZZ=    19.6666
   Eigenvalues:    19.0135    24.9571    37.7772
     40  H    Isotropic =    30.1100   Anisotropy =     7.5598
   XX=    30.3354   YX=    -2.5941   ZX=     3.7644
   XY=    -3.2029   YY=    31.2450   ZY=    -0.9265
   XZ=     3.4007   YZ=    -0.4396   ZZ=    28.7495
   Eigenvalues:    25.5291    29.6511    35.1498
     41  H    Isotropic =    30.5091   Anisotropy =    11.4715
   XX=    27.7544   YX=    -2.6273   ZX=    -2.1974
   XY=    -2.6979   YY=    32.9974   ZY=     5.3106
   XZ=    -1.9499   YZ=     4.7994   ZZ=    30.7754
   Eigenvalues:    26.6292    26.7413    38.1567
     42  H    Isotropic =    30.6646   Anisotropy =    11.8663
   XX=    32.4829   YX=    -0.4353   ZX=     5.5496
   XY=    -0.2069   YY=    26.1599   ZY=    -0.3990
   XZ=     5.6611   YZ=    -0.8393   ZZ=    33.3511
   Eigenvalues:    26.0951    27.3233    38.5755
     43  H    Isotropic =    29.9696   Anisotropy =     9.0519
   XX=    32.2306   YX=     4.1248   ZX=     0.1607
   XY=     2.8995   YY=    32.5599   ZY=    -2.1505
   XZ=     1.8642   YZ=    -2.4648   ZZ=    25.1184
   Eigenvalues:    23.9439    29.9607    36.0042
     44  H    Isotropic =    30.1331   Anisotropy =     8.7779
   XX=    34.0204   YX=    -3.5111   ZX=    -1.3172
   XY=    -2.3196   YY=    28.9377   ZY=     3.6480
   XZ=    -0.4077   YZ=     3.2198   ZZ=    27.4412
   Eigenvalues:    24.5156    29.8987    35.9850
     45  H    Isotropic =    30.2915   Anisotropy =     9.2667
   XX=    29.2904   YX=     1.6483   ZX=    -1.8194
   XY=     2.1590   YY=    30.7851   ZY=    -4.3481
   XZ=    -2.1163   YZ=    -4.9185   ZZ=    30.7991
   Eigenvalues:    26.1580    28.2472    36.4694
     46  H    Isotropic =    29.3276   Anisotropy =     6.8362
   XX=    30.0172   YX=     1.5922   ZX=     2.9352
   XY=     0.9219   YY=    26.2421   ZY=    -0.6923
   XZ=     2.8138   YZ=    -0.3205   ZZ=    31.7235
   Eigenvalues:    25.5030    28.5947    33.8851
     47  H    Isotropic =    29.2397   Anisotropy =     7.9051
   XX=    32.8450   YX=    -3.2469   ZX=    -2.2353
   XY=    -2.8958   YY=    28.8047   ZY=    -1.7632
   XZ=     0.0022   YZ=    -1.2659   ZZ=    26.0694
   Eigenvalues:    24.6649    28.5445    34.5098
     48  H    Isotropic =    30.2335   Anisotropy =    10.2861
   XX=    30.4968   YX=     4.9562   ZX=    -0.6822
   XY=     5.4354   YY=    32.7691   ZY=    -1.6022
   XZ=    -0.1445   YZ=    -0.7079   ZZ=    27.4344
   Eigenvalues:    26.1722    27.4373    37.0909
     49  H    Isotropic =    29.8979   Anisotropy =     5.9295
   XX=    29.8739   YX=    -0.1275   ZX=    -2.0436
   XY=    -0.4062   YY=    30.7761   ZY=     2.9914
   XZ=    -2.0321   YZ=     3.5183   ZZ=    29.0438
   Eigenvalues:    25.9595    29.8834    33.8509
     50  H    Isotropic =    29.5249   Anisotropy =     6.9171
   XX=    29.2877   YX=     0.9956   ZX=     3.7851
   XY=     2.6402   YY=    28.4090   ZY=    -1.2234
   XZ=     4.1502   YZ=    -2.2362   ZZ=    30.8779
   Eigenvalues:    24.4522    29.9862    34.1363
     51  H    Isotropic =    30.2956   Anisotropy =    10.9929
   XX=    33.4822   YX=     2.1999   ZX=    -5.0073
   XY=     1.3153   YY=    27.8788   ZY=    -1.6007
   XZ=    -5.1476   YZ=    -2.3044   ZZ=    29.5258
   Eigenvalues:    25.7980    27.4646    37.6242
     52  H    Isotropic =    29.2325   Anisotropy =     7.1564
   XX=    30.9700   YX=    -3.8748   ZX=     0.3066
   XY=    -3.5670   YY=    27.7077   ZY=    -3.9694
   XZ=    -1.2322   YZ=    -2.9994   ZZ=    29.0199
   Eigenvalues:    23.4085    30.2856    34.0035
     53  H    Isotropic =    29.8726   Anisotropy =     7.5377
   XX=    28.8770   YX=    -0.0099   ZX=    -3.0496
   XY=     0.8860   YY=    29.6733   ZY=     3.8695
   XZ=    -1.9842   YZ=     4.0928   ZZ=    31.0675
   Eigenvalues:    25.1998    29.5203    34.8977
     54  H    Isotropic =    29.4678   Anisotropy =     7.5964
   XX=    33.6151   YX=     2.9619   ZX=    -0.5270
   XY=     1.3256   YY=    28.0908   ZY=    -2.9369
   XZ=     0.1509   YZ=    -2.8599   ZZ=    26.6975
   Eigenvalues:    24.2557    29.6157    34.5321
     55  H    Isotropic =    30.2508   Anisotropy =    10.8142
   XX=    31.8431   YX=    -3.2705   ZX=     3.3944
   XY=    -3.5256   YY=    28.4284   ZY=    -3.8983
   XZ=     3.6707   YZ=    -3.3502   ZZ=    30.4809
   Eigenvalues:    25.5816    27.7106    37.4603
     56  H    Isotropic =    29.6175   Anisotropy =     7.2030
   XX=    29.8117   YX=    -3.9084   ZX=    -1.8989
   XY=    -3.6920   YY=    29.4592   ZY=     2.3004
   XZ=    -0.0794   YZ=     1.8808   ZZ=    29.5817
   Eigenvalues:    25.6265    28.8066    34.4195
     57  H    Isotropic =    29.7841   Anisotropy =     7.0361
   XX=    27.0894   YX=     3.5588   ZX=    -0.1928
   XY=     4.7316   YY=    32.0431   ZY=     0.2048
   XZ=     0.6572   YZ=     0.8715   ZZ=    30.2199
   Eigenvalues:    24.7367    30.1409    34.4748
     58  H    Isotropic =    28.5784   Anisotropy =     7.7810
   XX=    32.4437   YX=    -2.4656   ZX=     0.1192
   XY=    -3.3675   YY=    24.8829   ZY=     1.6524
   XZ=    -1.3389   YZ=     2.7080   ZZ=    28.4086
   Eigenvalues:    23.1985    28.7710    33.7657
     59  H    Isotropic =    30.7731   Anisotropy =    10.5943
   XX=    27.7441   YX=    -0.0222   ZX=     2.4496
   XY=    -0.2911   YY=    27.5162   ZY=    -0.1477
   XZ=     3.0535   YZ=    -0.8160   ZZ=    37.0591
   Eigenvalues:    26.9909    27.4926    37.8360
     60  H    Isotropic =    31.2692   Anisotropy =    10.1143
   XX=    28.2650   YX=     0.8398   ZX=     0.7383
   XY=    -0.6347   YY=    31.1530   ZY=    -5.6083
   XZ=     2.3398   YZ=    -4.0524   ZZ=    34.3897
   Eigenvalues:    26.8979    28.8976    38.0121
     61  H    Isotropic =    30.0644   Anisotropy =     8.0690
   XX=    35.2747   YX=    -0.2397   ZX=     0.8606
   XY=    -0.5376   YY=    26.2576   ZY=    -3.4514
   XZ=     1.0116   YZ=     0.4693   ZZ=    28.6610
   Eigenvalues:    25.5440    29.2056    35.4438
     62  H    Isotropic =    31.0930   Anisotropy =     7.0411
   XX=    28.4906   YX=     2.2119   ZX=     2.6521
   XY=    -0.3716   YY=    34.3116   ZY=     1.5827
   XZ=     5.1119   YZ=     1.6388   ZZ=    30.4768
   Eigenvalues:    25.4686    32.0233    35.7871
     63  O    Isotropic =   -36.5230   Anisotropy =   580.1875
   XX=  -221.8144   YX=   -19.1889   ZX=    76.3139
   XY=   -24.6828   YY=  -187.3774   ZY=  -139.3261
   XZ=    92.5332   YZ=  -140.5501   ZZ=   299.6228
   Eigenvalues:  -235.1445  -224.6932   350.2687
 End of Minotr F.D. properties file   721 does not exist.
 End of Minotr F.D. properties file   722 does not exist.
 End of Minotr F.D. properties file   788 does not exist.

 **********************************************************************

            Population analysis using the SCF density.

 **********************************************************************

 Orbital symmetries:
       Occupied  (A) (A) (A) (A) (A) (A) (A) (A) (A) (A) (A) (A)
                 (A) (A) (A) (A) (A) (A) (A) (A) (A) (A) (A) (A)
                 (A) (A) (A) (A) (A) (A) (A) (A) (A) (A) (A) (A)
                 (A) (A) (A) (A) (A) (A) (A) (A) (A) (A) (A) (A)
                 (A) (A) (A) (A) (A) (A) (A) (A) (A) (A) (A) (A)
                 (A) (A) (A) (A) (A) (A) (A) (A) (A) (A) (A) (A)
                 (A) (A) (A) (A) (A) (A) (A) (A) (A) (A) (A) (A)
                 (A) (A) (A) (A) (A) (A) (A) (A) (A) (A) (A) (A)
                 (A) (A) (A) (A) (A) (A) (A) (A) (A) (A) (A) (A)
                 (A)
       Virtual   (A) (A) (A) (A) (A) (A) (A) (A) (A) (A) (A) (A)
                 (A) (A) (A) (A) (A) (A) (A) (A) (A) (A) (A) (A)
                 (A) (A) (A) (A) (A) (A) (A) (A) (A) (A) (A) (A)
                 (A) (A) (A) (A) (A) (A) (A) (A) (A) (A) (A) (A)
                 (A) (A) (A) (A) (A) (A) (A) (A) (A) (A) (A) (A)
                 (A) (A) (A) (A) (A) (A) (A) (A) (A) (A) (A) (A)
                 (A) (A) (A) (A) (A) (A) (A) (A) (A) (A) (A) (A)
                 (A) (A) (A) (A) (A) (A) (A) (A) (A) (A) (A) (A)
                 (A) (A) (A) (A) (A) (A) (A) (A) (A) (A) (A) (A)
                 (A) (A) (A) (A) (A) (A) (A) (A) (A) (A) (A) (A)
                 (A) (A) (A) (A) (A) (A) (A) (A) (A) (A) (A) (A)
                 (A) (A) (A) (A) (A) (A) (A) (A) (A) (A) (A) (A)
                 (A) (A) (A) (A) (A) (A) (A) (A) (A) (A) (A) (A)
                 (A) (A) (A) (A) (A) (A) (A) (A) (A) (A) (A) (A)
                 (A) (A) (A) (A) (A) (A) (A) (A) (A) (A) (A) (A)
                 (A) (A) (A) (A) (A) (A) (A) (A) (A) (A) (A) (A)
                 (A) (A) (A) (A) (A) (A) (A) (A) (A) (A) (A) (A)
                 (A) (A) (A) (A) (A) (A) (A) (A) (A) (A) (A) (A)
                 (A) (A) (A) (A) (A) (A) (A) (A) (A) (A) (A) (A)
                 (A) (A) (A) (A) (A) (A) (A) (A) (A) (A) (A) (A)
                 (A) (A) (A) (A) (A) (A) (A) (A) (A) (A) (A) (A)
                 (A) (A) (A) (A) (A) (A) (A) (A) (A) (A) (A) (A)
                 (A) (A) (A) (A) (A) (A) (A) (A) (A) (A) (A) (A)
                 (A) (A) (A) (A) (A) (A) (A) (A) (A) (A) (A) (A)
                 (A) (A) (A) (A) (A) (A) (A) (A) (A) (A) (A) (A)
                 (A) (A) (A) (A) (A) (A) (A) (A) (A) (A) (A) (A)
                 (A) (A) (A) (A) (A) (A) (A) (A) (A) (A) (A) (A)
                 (A) (A) (A) (A) (A) (A) (A) (A) (A) (A) (A) (A)
                 (A) (A) (A) (A) (A) (A) (A) (A) (A) (A) (A) (A)
                 (A) (A) (A) (A) (A) (A) (A) (A) (A) (A) (A) (A)
                 (A) (A) (A) (A) (A) (A) (A) (A) (A) (A) (A) (A)
                 (A) (A) (A) (A) (A) (A) (A) (A) (A) (A) (A) (A)
                 (A) (A) (A) (A) (A) (A) (A) (A) (A) (A) (A) (A)
                 (A) (A) (A) (A) (A) (A) (A) (A) (A) (A) (A) (A)
                 (A) (A) (A) (A) (A) (A) (A) (A) (A) (A) (A) (A)
                 (A) (A) (A) (A) (A) (A) (A) (A) (A) (A) (A) (A)
                 (A) (A) (A) (A) (A) (A) (A) (A) (A) (A) (A) (A)
                 (A) (A) (A) (A) (A) (A) (A) (A) (A) (A) (A) (A)
                 (A) (A) (A) (A) (A) (A) (A) (A) (A) (A) (A) (A)
                 (A) (A) (A) (A) (A) (A) (A) (A) (A) (A) (A) (A)
                 (A) (A) (A) (A) (A) (A) (A) (A) (A) (A) (A) (A)
                 (A) (A) (A) (A) (A) (A) (A) (A) (A) (A) (A) (A)
                 (A) (A) (A) (A) (A) (A) (A) (A) (A) (A) (A) (A)
                 (A) (A) (A) (A) (A) (A) (A) (A) (A) (A) (A) (A)
                 (A) (A) (A) (A) (A) (A) (A) (A) (A) (A) (A) (A)
                 (A) (A) (A) (A) (A) (A) (A) (A) (A) (A) (A) (A)
                 (A) (A) (A) (A) (A) (A) (A) (A) (A) (A) (A) (A)
                 (A) (A) (A) (A) (A) (A) (A) (A) (A) (A) (A) (A)
                 (A) (A) (A) (A) (A) (A) (A) (A) (A) (A) (A) (A)
                 (A) (A) (A) (A) (A) (A) (A) (A) (A) (A) (A) (A)
                 (A) (A) (A) (A) (A) (A) (A) (A) (A) (A) (A) (A)
                 (A) (A) (A) (A) (A) (A) (A) (A) (A) (A) (A) (A)
                 (A) (A) (A) (A) (A) (A) (A) (A) (A) (A) (A) (A)
                 (A) (A) (A) (A) (A) (A) (A) (A) (A) (A) (A) (A)
                 (A) (A) (A) (A) (A) (A) (A) (A) (A) (A) (A) (A)
                 (A) (A) (A) (A) (A) (A) (A) (A) (A) (A) (A) (A)
                 (A) (A) (A) (A) (A) (A) (A) (A) (A) (A) (A) (A)
                 (A) (A) (A) (A) (A) (A) (A) (A) (A) (A) (A) (A)
[...]
 Alpha virt. eigenvalues --    1.65816   1.66355   1.66753   1.67054   1.67686
 Alpha virt. eigenvalues --    1.68434   1.68865   1.69681   1.69952   1.70278
 Alpha virt. eigenvalues --    1.71720   1.71961   1.72543   1.72924   1.73635
 Alpha virt. eigenvalues --    1.74391   1.75163   1.75555   1.76324   1.77031
 Alpha virt. eigenvalues --    1.77491   1.79665   1.79987   1.80388   1.80870
 Alpha virt. eigenvalues --    1.82640   1.84389   1.85221   1.86302   1.87031
 Alpha virt. eigenvalues --    1.87705   1.87931   1.89961   1.90514   1.90918
 Alpha virt. eigenvalues --    1.91664   1.93073   1.93447   1.94506   1.95745
 Alpha virt. eigenvalues --    1.96242   1.97492   1.97944   1.99612   2.01107
 Alpha virt. eigenvalues --    2.01712   2.02396   2.03470   2.04358   2.06167
 Alpha virt. eigenvalues --    2.07243   2.08374   2.08640   2.10924   2.11330
 Alpha virt. eigenvalues --    2.13539   2.14633   2.14999   2.18797   2.21393
 Alpha virt. eigenvalues --    2.22939   2.24435   2.25783   2.26017   2.27324
 Alpha virt. eigenvalues --    2.29495   2.30095   2.31340   2.33101   2.33728
 Alpha virt. eigenvalues --    2.34453   2.35109   2.35343   2.36734   2.37016
 Alpha virt. eigenvalues --    2.37922   2.38418   2.39075   2.39380   2.40896
 Alpha virt. eigenvalues --    2.41062   2.41802   2.43067   2.43894   2.44485
 Alpha virt. eigenvalues --    2.45096   2.45549   2.45889   2.46462   2.47155
 Alpha virt. eigenvalues --    2.47918   2.48589   2.49748   2.50259   2.50724
 Alpha virt. eigenvalues --    2.51888   2.52102   2.52384   2.53326   2.54181
 Alpha virt. eigenvalues --    2.54487   2.54862   2.55780   2.56927   2.57230
 Alpha virt. eigenvalues --    2.57868   2.58637   2.58814   2.59347   2.59504
 Alpha virt. eigenvalues --    2.60562   2.61310   2.62191   2.62470   2.62985
 Alpha virt. eigenvalues --    2.63209   2.64339   2.64885   2.65254   2.65762
 Alpha virt. eigenvalues --    2.66225   2.66826   2.67053   2.67837   2.68350
 Alpha virt. eigenvalues --    2.68831   2.69410   2.69464   2.69756   2.70184
 Alpha virt. eigenvalues --    2.71064   2.71172   2.71831   2.72344   2.72639
 Alpha virt. eigenvalues --    2.72935   2.73885   2.74589   2.74876   2.75192
 Alpha virt. eigenvalues --    2.75893   2.76504   2.76915   2.77584   2.78022
 Alpha virt. eigenvalues --    2.78455   2.78740   2.78953   2.79450   2.80103
 Alpha virt. eigenvalues --    2.80324   2.80874   2.81338   2.81723   2.82097
 Alpha virt. eigenvalues --    2.82468   2.83013   2.83296   2.83836   2.84360
 Alpha virt. eigenvalues --    2.84449   2.85079   2.85368   2.85834   2.86242
 Alpha virt. eigenvalues --    2.86689   2.87197   2.87664   2.88670   2.89034
 Alpha virt. eigenvalues --    2.89134   2.89826   2.90102   2.90411   2.90834
 Alpha virt. eigenvalues --    2.91159   2.91561   2.92379   2.92595   2.92916
 Alpha virt. eigenvalues --    2.94004   2.94734   2.94953   2.95135   2.95675
 Alpha virt. eigenvalues --    2.96791   2.97075   2.97333   2.97880   2.98251
 Alpha virt. eigenvalues --    2.98806   2.99187   2.99478   3.00624   3.00782
 Alpha virt. eigenvalues --    3.00949   3.01141   3.01773   3.01993   3.02473
 Alpha virt. eigenvalues --    3.02860   3.03149   3.03520   3.03848   3.03923
 Alpha virt. eigenvalues --    3.04333   3.04962   3.05261   3.05694   3.05932
 Alpha virt. eigenvalues --    3.06188   3.06506   3.06954   3.07278   3.07685
 Alpha virt. eigenvalues --    3.08349   3.09174   3.09334   3.09572   3.09960
 Alpha virt. eigenvalues --    3.10154   3.10519   3.10688   3.11084   3.11358
 Alpha virt. eigenvalues --    3.11704   3.11862   3.12307   3.12469   3.12561
 Alpha virt. eigenvalues --    3.12845   3.13416   3.13483   3.14142   3.14349
 Alpha virt. eigenvalues --    3.14877   3.15135   3.15590   3.16029   3.16286
 Alpha virt. eigenvalues --    3.16813   3.17330   3.17572   3.17942   3.18157
 Alpha virt. eigenvalues --    3.18646   3.19206   3.19599   3.19830   3.20076
 Alpha virt. eigenvalues --    3.20172   3.20605   3.20815   3.21963   3.22244
 Alpha virt. eigenvalues --    3.22778   3.23290   3.23562   3.23827   3.24260
 Alpha virt. eigenvalues --    3.24602   3.25117   3.25348   3.26117   3.27069
 Alpha virt. eigenvalues --    3.27293   3.27968   3.28149   3.28539   3.28628
 Alpha virt. eigenvalues --    3.29576   3.29762   3.30121   3.30536   3.30955
 Alpha virt. eigenvalues --    3.31291   3.31575   3.31924   3.32547   3.33005
 Alpha virt. eigenvalues --    3.33413   3.33641   3.34201   3.34664   3.35054
 Alpha virt. eigenvalues --    3.35161   3.35630   3.36248   3.36469   3.37159
 Alpha virt. eigenvalues --    3.37435   3.37744   3.38537   3.38875   3.39252
 Alpha virt. eigenvalues --    3.39595   3.39839   3.40348   3.40866   3.41316
 Alpha virt. eigenvalues --    3.41688   3.42069   3.42254   3.42624   3.43323
 Alpha virt. eigenvalues --    3.43895   3.44084   3.44219   3.44819   3.45066
 Alpha virt. eigenvalues --    3.45362   3.45462   3.46140   3.46675   3.46906
 Alpha virt. eigenvalues --    3.47074   3.47478   3.47814   3.48106   3.48226
 Alpha virt. eigenvalues --    3.48579   3.49027   3.49907   3.50046   3.50508
 Alpha virt. eigenvalues --    3.50799   3.51103   3.51320   3.51874   3.52721
 Alpha virt. eigenvalues --    3.52891   3.53163   3.53389   3.53997   3.54171
 Alpha virt. eigenvalues --    3.55474   3.55626   3.55857   3.56407   3.56688
 Alpha virt. eigenvalues --    3.56868   3.57510   3.58123   3.58206   3.58674
 Alpha virt. eigenvalues --    3.59031   3.59541   3.59895   3.60345   3.61249
 Alpha virt. eigenvalues --    3.61698   3.61932   3.62146   3.62832   3.63568
 Alpha virt. eigenvalues --    3.63930   3.64206   3.64904   3.65592   3.65894
 Alpha virt. eigenvalues --    3.66220   3.67443   3.67950   3.68685   3.69211
 Alpha virt. eigenvalues --    3.69730   3.69882   3.70032   3.71009   3.71500
 Alpha virt. eigenvalues --    3.71819   3.72116   3.72498   3.73423   3.73992
 Alpha virt. eigenvalues --    3.74247   3.74730   3.75033   3.75603   3.76269
 Alpha virt. eigenvalues --    3.76681   3.77214   3.77691   3.78058   3.78805
 Alpha virt. eigenvalues --    3.79003   3.79909   3.79947   3.80114   3.80210
 Alpha virt. eigenvalues --    3.80822   3.81926   3.82855   3.83290   3.83406
 Alpha virt. eigenvalues --    3.84344   3.85031   3.85422   3.85674   3.86174
 Alpha virt. eigenvalues --    3.86766   3.87402   3.87731   3.88436   3.88692
 Alpha virt. eigenvalues --    3.89415   3.90080   3.90213   3.91005   3.91863
 Alpha virt. eigenvalues --    3.92460   3.92968   3.93306   3.93905   3.94469
 Alpha virt. eigenvalues --    3.94739   3.95167   3.95281   3.96096   3.96230
 Alpha virt. eigenvalues --    3.96666   3.97795   3.97859   3.98466   3.99120
 Alpha virt. eigenvalues --    3.99226   4.00049   4.00291   4.00584   4.01275
 Alpha virt. eigenvalues --    4.02090   4.02362   4.02621   4.02945   4.04108
 Alpha virt. eigenvalues --    4.04569   4.05274   4.05717   4.05931   4.06549
 Alpha virt. eigenvalues --    4.06628   4.07455   4.07605   4.07970   4.08758
 Alpha virt. eigenvalues --    4.09027   4.09494   4.09857   4.09987   4.10532
 Alpha virt. eigenvalues --    4.10821   4.11124   4.11782   4.12100   4.12330
 Alpha virt. eigenvalues --    4.12931   4.13387   4.13527   4.13908   4.14408
 Alpha virt. eigenvalues --    4.14709   4.14962   4.15395   4.15989   4.16398
 Alpha virt. eigenvalues --    4.16554   4.16847   4.17519   4.18152   4.18712
 Alpha virt. eigenvalues --    4.19152   4.19509   4.20151   4.20531   4.20634
 Alpha virt. eigenvalues --    4.21471   4.21604   4.22259   4.22906   4.23209
 Alpha virt. eigenvalues --    4.23375   4.24077   4.24481   4.24723   4.24988
 Alpha virt. eigenvalues --    4.25406   4.26201   4.26666   4.27057   4.27135
 Alpha virt. eigenvalues --    4.27452   4.28205   4.28581   4.29047   4.29593
 Alpha virt. eigenvalues --    4.29809   4.29945   4.30239   4.30798   4.31411
 Alpha virt. eigenvalues --    4.31694   4.31840   4.32120   4.32671   4.33094
 Alpha virt. eigenvalues --    4.33308   4.33589   4.34020   4.34358   4.34818
 Alpha virt. eigenvalues --    4.35057   4.35330   4.35726   4.35919   4.36287
 Alpha virt. eigenvalues --    4.37487   4.37745   4.38314   4.38494   4.39016
 Alpha virt. eigenvalues --    4.40076   4.40178   4.41080   4.41377   4.41745
 Alpha virt. eigenvalues --    4.42211   4.42482   4.43499   4.44104   4.44678
 Alpha virt. eigenvalues --    4.45148   4.45902   4.46737   4.47164   4.47288
 Alpha virt. eigenvalues --    4.47637   4.48517   4.49289   4.49500   4.50533
 Alpha virt. eigenvalues --    4.50736   4.52293   4.52667   4.53161   4.54222
 Alpha virt. eigenvalues --    4.54935   4.55501   4.56226   4.56925   4.57591
 Alpha virt. eigenvalues --    4.58085   4.58682   4.59406   4.60418   4.61547
 Alpha virt. eigenvalues --    4.62746   4.64150   4.65214   4.66118   4.66978
 Alpha virt. eigenvalues --    4.69310   4.69922   4.70507   4.70738   4.72005
 Alpha virt. eigenvalues --    4.72505   4.74158   4.74373   4.75215   4.76763
 Alpha virt. eigenvalues --    4.76878   4.77817   4.79188   4.79955   4.80998
 Alpha virt. eigenvalues --    4.81696   4.82226   4.82345   4.83146   4.83199
 Alpha virt. eigenvalues --    4.84135   4.84623   4.84756   4.85397   4.85879
 Alpha virt. eigenvalues --    4.85971   4.86917   4.87404   4.88089   4.88210
 Alpha virt. eigenvalues --    4.88714   4.88893   4.89578   4.89902   4.90424
 Alpha virt. eigenvalues --    4.91022   4.91555   4.91777   4.92261   4.93151
 Alpha virt. eigenvalues --    4.93347   4.94525   4.95262   4.96051   4.96327
 Alpha virt. eigenvalues --    4.96649   4.97021   4.97838   4.99040   4.99926
 Alpha virt. eigenvalues --    5.00669   5.01697   5.02451   5.03767   5.05048
 Alpha virt. eigenvalues --    5.05906   5.06393   5.07628   5.08521   5.08962
 Alpha virt. eigenvalues --    5.09291   5.10159   5.10460   5.11429   5.11817
 Alpha virt. eigenvalues --    5.13479   5.13664   5.14525   5.14949   5.15954
 Alpha virt. eigenvalues --    5.16218   5.16617   5.17092   5.18793   5.19596
 Alpha virt. eigenvalues --    5.20085   5.20304   5.20879   5.21570   5.21807
 Alpha virt. eigenvalues --    5.23193   5.23644   5.24101   5.25023   5.25585
 Alpha virt. eigenvalues --    5.26109   5.26120   5.27222   5.27749   5.28052
 Alpha virt. eigenvalues --    5.28979   5.29376   5.29837   5.30806   5.31670
 Alpha virt. eigenvalues --    5.32962   5.33258   5.33674   5.34124   5.34732
 Alpha virt. eigenvalues --    5.35063   5.35673   5.36454   5.37092   5.37490
 Alpha virt. eigenvalues --    5.37611   5.38338   5.38531   5.39329   5.39701
 Alpha virt. eigenvalues --    5.40209   5.40558   5.40822   5.42149   5.42665
 Alpha virt. eigenvalues --    5.42821   5.43130   5.43655   5.44493   5.44948
 Alpha virt. eigenvalues --    5.45371   5.46284   5.47510   5.48244   5.48708
 Alpha virt. eigenvalues --    5.48961   5.49827   5.50178   5.50295   5.51213
 Alpha virt. eigenvalues --    5.51691   5.52351   5.53329   5.54011   5.54538
 Alpha virt. eigenvalues --    5.55360   5.56471   5.56681   5.57280   5.57601
 Alpha virt. eigenvalues --    5.58518   5.59462   5.60565   5.61306   5.61867
 Alpha virt. eigenvalues --    5.62716   5.65942   5.68292   5.70846   5.72695
 Alpha virt. eigenvalues --    5.77401   5.78476   5.85707   5.86926   5.89486
 Alpha virt. eigenvalues --    5.92120   5.96746   5.98230   5.98666   6.00039
 Alpha virt. eigenvalues --    6.01317   6.01732   6.02178   6.02466   6.03254
 Alpha virt. eigenvalues --    6.04009   6.05070   6.05281   6.05501   6.06304
 Alpha virt. eigenvalues --    6.07483   6.08943   6.10214   6.11038   6.12904
 Alpha virt. eigenvalues --    6.13135   6.15308   6.16483   6.18284   6.19942
 Alpha virt. eigenvalues --    6.22580   6.26739   6.29817   6.30816   6.32974
 Alpha virt. eigenvalues --    6.34509   6.36709   6.43518   6.52887   6.56887
 Alpha virt. eigenvalues --    6.58665   6.71485   6.75989   6.77620   6.79032
 Alpha virt. eigenvalues --    6.84122   6.86531   6.94650   7.07881   7.17459
 Alpha virt. eigenvalues --    7.37108   8.18141   9.82412   9.88878  10.16285
 Alpha virt. eigenvalues --   10.84827  12.13663  12.30510  12.34075  12.82390
 Alpha virt. eigenvalues --   12.93011  12.98142  13.19934  13.26805  13.46926
 Alpha virt. eigenvalues --   13.60597  13.62710  13.71588  13.78604  13.80143
 Alpha virt. eigenvalues --   13.83766  13.86480  13.91837  13.94937  15.05845
 Alpha virt. eigenvalues --   35.45322  35.68478  35.75254  46.27959
          Condensed to atoms (all electrons):
 Mulliken charges:
               1
     1  N   -0.162379
     2  C    0.112529
     3  C    0.047095
     4  C   -0.155721
     5  C   -0.145586
     6  C   -0.126851
     7  C   -0.096440
     8  H    0.161671
     9  H    0.162082
    10  H    0.163243
    11  C   -0.228026
    12  N   -0.211975
    13  H    0.125509
    14  H    0.167504
    15  H    0.160749
    16  P    0.115170
    17  H    0.144326
    18  Ru   0.579915
    19  C   -0.114394
    20  C    0.001923
    21  C   -0.112393
    22  C   -0.000329
    23  C   -0.353778
    24  C   -0.341188
    25  C   -0.332008
    26  C   -0.355707
    27  C   -0.333696
    28  C   -0.347299
    29  H   -0.386928
    30  H    0.136749
    31  C   -0.324908
    32  H    0.131135
    33  H    0.149222
    34  C   -0.364277
    35  H    0.113121
    36  C   -0.094670
    37  O   -0.708315
    38  H    0.263081
    39  H    0.135305
    40  H    0.106392
    41  H    0.112686
    42  H    0.117094
    43  H    0.110762
    44  H    0.111954
    45  H    0.109458
    46  H    0.117660
    47  H    0.134329
    48  H    0.106778
    49  H    0.117728
    50  H    0.121572
    51  H    0.108356
    52  H    0.122651
    53  H    0.113646
    54  H    0.118336
    55  H    0.107320
    56  H    0.116372
    57  H    0.119871
    58  H    0.135062
    59  H    0.106736
    60  H    0.110855
    61  H    0.140919
    62  H    0.115389
    63  O   -0.255391
 Sum of Mulliken charges =  -0.00000
 Mulliken charges with hydrogens summed into heavy atoms:
               1
     1  N   -0.162379
     2  C    0.112529
     3  C    0.047095
     4  C    0.005950
     5  C    0.016496
     6  C    0.036392
     7  C    0.196573
    11  C    0.077049
    12  N   -0.211975
    16  P    0.115170
    18  Ru   0.192988
    19  C    0.153490
    20  C    0.001923
    21  C    0.149950
    22  C   -0.000329
    23  C    0.007669
    24  C    0.004890
    25  C    0.012645
    26  C    0.011457
    27  C    0.008332
    28  C    0.014371
    31  C    0.014901
    34  C   -0.009894
    36  C   -0.094670
    37  O   -0.445234
    63  O   -0.255391
 Electronic spatial extent (au):  <R**2>=           9448.7963
 Charge=              0.0000 electrons
 Dipole moment (field-independent basis, Debye):
    X=              0.4573    Y=             12.1807    Z=              0.2812  Tot=             12.1925
 Quadrupole moment (field-independent basis, Debye-Ang):
   XX=           -148.2080   YY=           -184.3488   ZZ=           -187.5282
   XY=              5.4754   XZ=             -6.6720   YZ=              6.1217
 Traceless Quadrupole moment (field-independent basis, Debye-Ang):
   XX=             25.1537   YY=            -10.9872   ZZ=            -14.1665
   XY=              5.4754   XZ=             -6.6720   YZ=              6.1217
 Octapole moment (field-independent basis, Debye-Ang**2):
  XXX=             70.2049  YYY=            111.4332  ZZZ=            -24.0161  XYY=             23.2180
  XXY=              4.4539  XXZ=             -6.8463  XZZ=             -2.1614  YZZ=             -1.0427
  YYZ=             19.2556  XYZ=              0.6381
 Hexadecapole moment (field-independent basis, Debye-Ang**3):
 XXXX=          -6780.7411 YYYY=          -3508.9503 ZZZZ=          -2179.7448 XXXY=             46.4203
 XXXZ=            -28.9922 YYYX=            104.7450 YYYZ=            107.8855 ZZZX=            -31.6405
 ZZZY=             43.9679 XXYY=          -1686.6854 XXZZ=          -1495.4252 YYZZ=           -955.5051
 XXYZ=            -27.3040 YYXZ=            -29.1308 ZZXY=            -22.7376
 N-N= 3.248808820542D+03 E-N=-9.934988894678D+03  KE= 1.410235338992D+03
 1\1\GINC-NODE062\SP\RPBE1PBE\GenECP\C20H37N2O2P1Ru1\JS1212\11-Nov-2018
 \0\\# nmr genecp pbe1pbe EmpiricalDispersion=GD3BJ scrf=(SMD,solvent=w
 ater) geom=allcheck\\Title Card Required\\0,1\N,0,-0.7918812609,1.4168
 393179,-0.1797083441\C,0,-1.9748490699,1.8626473396,0.287192185\C,0,0.
 1221555013,2.2781099001,-0.6827278584\C,0,-2.3229751972,3.2049606428,0
 .2055949297\C,0,-1.4077851342,4.1041159914,-0.3380615297\C,0,-0.170179
 3677,3.6371050377,-0.772001234\C,0,-2.7931011803,0.8131113477,0.977467
 5118\H,0,-3.2936136464,3.5385582831,0.5747071781\H,0,-1.6534888112,5.1
 646165785,-0.4135295879\H,0,0.5742098001,4.3214227814,-1.1809111267\C,
 0,1.4353993764,1.6776244921,-1.0947069685\N,0,-2.6916554775,-0.5039304
 791,0.3217054563\H,0,-3.8405056601,1.1434886949,1.0903965357\H,0,-2.36
 44857155,0.6883826558,1.9856111812\H,0,1.3685146588,1.3573663185,-2.14
 93201589\P,0,1.7184397266,0.0742468955,-0.1486364232\H,0,2.2481861831,
 2.4163443602,-1.0244553651\Ru,0,-0.4339752965,-0.5908956414,-0.0532824
 014\C,0,-3.4514934843,-0.4968109309,-0.9518021826\C,0,3.0262743603,-0.
 8518397486,-1.1724480004\C,0,-3.1742434498,-1.5428797338,1.2605266583\
 C,0,2.4887034886,0.6545489498,1.5007930701\C,0,2.2910052184,-1.5372974
 699,-2.3247527336\C,0,3.6294109079,-1.9582204516,-0.3037467104\C,0,4.1
 148277877,0.0510112653,-1.7548865201\C,0,1.6012863144,1.7721666378,2.0
 59113887\C,0,3.9095825373,1.1995994466,1.3636475561\C,0,2.4581053825,-
 0.5049009461,2.4999444106\H,0,-0.3519872844,-0.4443821575,1.609845928\
 H,0,-3.0416195008,0.3274911171,-1.5548667345\C,0,-4.9635022761,-0.3617
 351461,-0.8469226159\H,0,-3.1963252328,-1.4219422942,-1.4831147866\H,0
 ,-2.4919642222,-1.4969657883,2.1217309536\C,0,-3.1514993852,-2.9369096
 45,0.6713593858\H,0,-4.1869763439,-1.2712070802,1.6211265125\C,0,-0.62
 31383938,-0.864693327,-1.9217593918\O,0,-0.115667159,-2.637518024,0.19
 54199643\H,0,0.0805382406,-2.7482827502,1.1328049819\H,0,-2.1329588459
 ,-3.1493123867,0.2974780376\H,0,-3.8920791728,-3.0685351041,-0.1325313
 904\H,0,-3.3988118214,-3.6610432245,1.4625626965\H,0,-5.3861688365,-0.
 3480968156,-1.8627369447\H,0,-5.2802258582,0.5694583848,-0.3532975445\
 H,0,-5.4222352492,-1.2057790613,-0.3115963742\H,0,3.0263977646,-2.1063
 017212,-2.9179286437\H,0,1.8089835015,-0.8199282431,-3.0045584371\H,0,
 1.5299164085,-2.2320430388,-1.9426734978\H,0,4.2404206628,-2.617345204
 4,-0.9427493357\H,0,2.8339811069,-2.5705907779,0.1485402258\H,0,4.2844
 749612,-1.5709441128,0.4883950062\H,0,4.8058992237,-0.5677713557,-2.35
 19833762\H,0,4.7108340853,0.5656516598,-0.9921502396\H,0,3.6961528291,
 0.808932494,-2.4345843333\H,0,4.637056075,0.423645033,1.0906765348\H,0
 ,4.2260152956,1.6144049823,2.3355126322\H,0,3.9761852402,2.0146904532,
 0.6262392371\H,0,3.1156821751,-1.3342399991,2.211399255\H,0,1.43256229
 45,-0.8893756422,2.5982903446\H,0,2.7920912949,-0.1375539878,3.4849692
 092\H,0,1.9602075391,2.0317429999,3.068783399\H,0,0.5568358016,1.43952
 42639,2.1407636139\H,0,1.6441230822,2.688337277,1.4514868026\O,0,-0.82
 42164921,-0.9931433126,-3.0562044894\\Version=ES64L-G16RevA.03\State=1
 -A\HF=-1479.7930267\RMSD=2.851e-09\Dipole=-0.3114565,4.75798,0.5243603
 \Quadrupole=18.8644929,-7.1837338,-11.6807591,-2.6642846,-5.3512419,-4
 .2305312\PG=C01 [X(C20H37N2O2P1Ru1)]\\@


 ALL MY ATTEMPTS TO ADAPT THE THEORETICAL FOUNDATIONS OF PHYSICS
 TO THESE NEW NOTIONS FAILED COMPLETELY. IT WAS AS IF THE GROUND HAD
 BEEN PULLED OUT FROM UNDER ONE WITH NO FIRM FOUNDATION TO BE SEEN ANYWHERE,
 UPON WHICH ONE COULD HAVE BUILT.  -- A.EINSTEIN
 Job cpu time:       0 days 22 hours 56 minutes 36.4 seconds.
 Elapsed time:       0 days  1 hours 31 minutes  6.0 seconds.
 File lengths (MBytes):  RWF=   1227 Int=      0 D2E=      0 Chk=    154 Scr=      1
 Normal termination of Gaussian 16 at Sun Nov 11 15:47:39 2018.
