*****************************************************************************************
*** WorkDir at /tmp/molcas_calculations/GMe-Cis-CI23-D0-VDZ-SA-CAS1311-Pi-PCM cleaned ***
*****************************************************************************************
   This run of MOLCAS is using the pymolcas driver

                             OPE
                             OPE          NMOL  CASOP  ENMOLC A   SO
                 OPE        NMOLC        AS  OP EN  MO LC     AS  OP
                OPENM       OL CA        SO  PE NM  OL CA     SOP EN
                OP EN      MO   LC       AS  OP ENMOL  CASO   PENMOL
                OP  EN     MO   LC       AS  OP EN     MO     LC ASO
               OP   E  NMOL  C  AS       OP  EN MO     LC     AS  OP
               OP  E   NMO   LC AS        OPEN  MO     LCASOP EN   M
               O  PEN   MO  LCA  SO
            OPE   NMO   L   CAS    OP
        OPENMOL  CASOP     ENMOL   CASOPE
     OPENMOLCA   SOPENMOLCASOPEN   MOLCASOPE
    OPENMOLCAS   OP           EN   MOL    CAS
    OPENMOLCAS       OP  ENM        O     LCA
    OPENMOLCAS    OPEN  MOLCASO     P  E  NMO
    OPENMOLCAS     OP               E  N  MOL
    OPENMOLCA   SO           PENM   O  L  CAS    OPEN    MO    LCAS
    OPENMOLCA   SOP           ENM   O  L  CAS   OP  EN  MOLC  AS   O
    OPENMOLCA   SOPE           NM      O  LCA   S      OP  EN MO
    OPENMOLC                AS         O  PEN   M      OL  CA  SOPE
    OPENMO        LCASOPE  NMOL        C  ASO   P      ENMOLC     AS
    OPE     NMO      LCA  SO     P     E   NM   OL  CA SO  PE N   MO
          OPENMOLCA            SOPE   NMO        LCAS  O    P  ENMO
     OPENMOLCASOPENMOLCASOPENMOLCASOPENMOLCA
        OPENMOLCASOPENMOLCASOPENMOLCASOPE
            OPENMOLCASOPENMOLCASOPENM
               OPENMOLCASOPENMOLCA        version: 19.11
                   OPENMOLCASO
                       OPE                tag: 1008-ga5e89a9f

 OpenMolcas is free software; you can redistribute it and/or modify it
 under the terms of the GNU Lesser General Public License version 2.1.
 OpenMolcas is distributed in the hope that it will be useful, but it
 is provided "as is" and without any express or implied warranties.
 For more details see the full text of the license in the file
 LICENSE or in <http://www.gnu.org/licenses/>.

                 Copyright (C) The OpenMolcas Authors
           For the author list and the recommended citation,
                   consult the file CONTRIBUTORS.md

           *************************************************
           * pymolcas version py2.08                       *
           *   build bed633bbe89b7744c23cdbfc3f64969c      *
           *   (after the EMIL interpreter by V. Veryazov) *
           *************************************************

configuration info
------------------
C Compiler ID: GNU
C flags: -std=gnu99 -fopenmp
Fortran Compiler ID: GNU
Fortran flags: -fno-aggressive-loop-optimizations -cpp -fdefault-integer-8 -fopenmp
Definitions: _MOLCAS_;_I8_;_LINUX_;_OPENBLAS_;_FDE_
Parallel: OFF (GA=OFF)


   -------------------------------------------------------------------------------------
  |
  |              Project: GMe-Cis-CI23-D0-VDZ-SA-CAS1311-Pi-PCM
  |       Submitted from: /home/ubuntu/newcas/build/calc/200723
  |         Scratch area: /tmp/molcas_calculations/GMe-Cis-CI23-D0-VDZ-SA-CAS1311-Pi-PCM
  |      Save outputs to: /home/ubuntu/newcas/build/calc/200723
  |               Molcas: /home/ubuntu/newcas/build
  |
  | Scratch area is empty
  |
  |       MOLCAS_DRIVER = /usr/local/sbin/pymolcas
  |          MOLCAS_FIM = 1
  | MOLCAS_KEEP_WORKDIR = NO
  |       MOLCAS_LINALG = /home/ubuntu/newcas/OpenBLAS_install/openblas-lapack-ilp64
  |      MOLCAS_MAXITER = 200
  |       MOLCAS_MAXMEM = 30000
  |  MOLCAS_NEW_WORKDIR = YES
  |       MOLCAS_NPROCS = 1
  |        MOLCAS_PRINT = VERBOSE
  |       MOLCAS_SOURCE = /home/ubuntu/newcas/OpenMolcas
  |    MOLCAS_STRUCTURE = 0
  |
   -------------------------------------------------------------------------------------

++ ---------   Input file   ---------

&GATEWAY
        Title = GMe-Cis-CI23-D0-VDZ-SA-CAS1311-Pi-PCM
        coord = GMe-Cis-CI23-D0-VDZ-SA-CAS1311-Pi-CI23-Opt-Thres-6D-4.Opt.xyz
        basis = ANO-RCC-VDZ
        group = c1
        RICD
        RF-input
                PCM-model
                solvent = water
                Conductor version
        End of RF-input

&SEWARD

&RASSCF
        Fileorb = GMe-Cis-CI23-D0-VDZ-SA-CAS1311-Pi-CI23-Opt-Thres-6D-4.RasOrb
        Spin = 2
        Charge = 0
        Nactel = 13 0 0
        Ras2 = 11
        CiRoot = 5 5 1
        RFRoot = 2
        TDM

&RASSCF
        JOBIPH
        Spin = 2
        Charge = 0
        Nactel = 13 0 0
        Ras2 = 11
        CiRoot = 5 5 1
        RFRoot = 3
        TDM

-- ----------------------------------

--- Start Module: gateway at Thu Jul 23 12:57:31 2020 ---

()()()()()()()()()()()()()()()()()()()()()()()()()()()()()()()()()()()()()()()()()()()()()()()()()()

                                              &GATEWAY

                                   only a single process is used
                       available to each process: 20 GB of memory, 16 threads
                                             pid: 30074
()()()()()()()()()()()()()()()()()()()()()()()()()()()()()()()()()()()()()()()()()()()()()()()()()()



 Basis Set     1 Label: O.ANO-RCC-VDZ
 Basis set is read from library:basis_library 
 Basis Set Reference(s):
     B. O. Roos, R. Lindh, P.-A. Malmqvist, V. Veryazov, and P.-O. Widmark,          
     J. Phys. Chem. A 108, 2851 (2004)                                               




 Basis Set     2 Label: C.ANO-RCC-VDZ
 Basis set is read from library:basis_library 
 Basis Set Reference(s):
     B. O. Roos, R. Lindh, P.-A. Malmqvist, V. Veryazov, and P.-O. Widmark,          
     J. Phys. Chem. A 108, 2851 (2004)                                               




 Basis Set     3 Label: H.ANO-RCC-VDZ
 Basis set is read from library:basis_library 
 Basis Set Reference(s):
     P.-O. Widmark, P.-A. Malmqvist, and B. O. Roos                                  
     Theor. Chim. Acta 77, 291 (1990)                                                




 Basis Set     4 Label: N.ANO-RCC-VDZ
 Basis set is read from library:basis_library 
 Basis Set Reference(s):
     B. O. Roos, R. Lindh, P.-A. Malmqvist, V. Veryazov, and P.-O. Widmark,          
     J. Phys. Chem. A 108, 2851 (2004)                                               




 Basis Set     5 Label: C.ANO-RCC-VDZ
 Basis set is read from library:basis_library 
 Basis Set Reference(s):
     B. O. Roos, R. Lindh, P.-A. Malmqvist, V. Veryazov, and P.-O. Widmark,          
     J. Phys. Chem. A 108, 2851 (2004)                                               




 Basis Set     6 Label: P.ANO-RCC-VDZ
 Basis set is read from library:basis_library 
 Basis Set Reference(s):
     B. O. Roos, R. Lindh, P.-A. Malmqvist, V. Veryazov, and P.-O. Widmark,          
     J. Phys. Chem. A 108, 2851 (2004)                                               




 Basis Set     7 Label: H.ANO-RCC-VDZ
 Basis set is read from library:basis_library 
 Basis Set Reference(s):
     P.-O. Widmark, P.-A. Malmqvist, and B. O. Roos                                  
     Theor. Chim. Acta 77, 291 (1990)                                                




 Basis Set     8 Label: C.ANO-RCC-VDZ
 Basis set is read from library:basis_library 
 Basis Set Reference(s):
     B. O. Roos, R. Lindh, P.-A. Malmqvist, V. Veryazov, and P.-O. Widmark,          
     J. Phys. Chem. A 108, 2851 (2004)                                               




 Basis Set     9 Label: N.ANO-RCC-VDZ
 Basis set is read from library:basis_library 
 Basis Set Reference(s):
     B. O. Roos, R. Lindh, P.-A. Malmqvist, V. Veryazov, and P.-O. Widmark,          
     J. Phys. Chem. A 108, 2851 (2004)                                               




 Basis Set    10 Label: C.ANO-RCC-VDZ
 Basis set is read from library:basis_library 
 Basis Set Reference(s):
     B. O. Roos, R. Lindh, P.-A. Malmqvist, V. Veryazov, and P.-O. Widmark,          
     J. Phys. Chem. A 108, 2851 (2004)                                               




 Basis Set    11 Label: H.ANO-RCC-VDZ
 Basis set is read from library:basis_library 
 Basis Set Reference(s):
     P.-O. Widmark, P.-A. Malmqvist, and B. O. Roos                                  
     Theor. Chim. Acta 77, 291 (1990)                                                




 Basis Set    12 Label: C.ANO-RCC-VDZ
 Basis set is read from library:basis_library 
 Basis Set Reference(s):
     B. O. Roos, R. Lindh, P.-A. Malmqvist, V. Veryazov, and P.-O. Widmark,          
     J. Phys. Chem. A 108, 2851 (2004)                                               




 Basis Set    13 Label: H.ANO-RCC-VDZ
 Basis set is read from library:basis_library 
 Basis Set Reference(s):
     P.-O. Widmark, P.-A. Malmqvist, and B. O. Roos                                  
     Theor. Chim. Acta 77, 291 (1990)                                                




 Basis Set    14 Label: O.ANO-RCC-VDZ
 Basis set is read from library:basis_library 
 Basis Set Reference(s):
     B. O. Roos, R. Lindh, P.-A. Malmqvist, V. Veryazov, and P.-O. Widmark,          
     J. Phys. Chem. A 108, 2851 (2004)                                               




 Basis Set    15 Label: H.ANO-RCC-VDZ
 Basis set is read from library:basis_library 
 Basis Set Reference(s):
     P.-O. Widmark, P.-A. Malmqvist, and B. O. Roos                                  
     Theor. Chim. Acta 77, 291 (1990)                                                




 Basis Set    16 Label: RU.ANO-RCC-VDZ
 Basis set is read from library:basis_library 
 Basis Set Reference(s):
     B. O. Roos, R. Lindh and P.-A. Malmqvist, V. Veryazov and P.-O. Widmark         
     J. Phys. Chem. A, 109. 6575-6579 (2005).                                        




 Basis Set    17 Label: H.ANO-RCC-VDZ
 Basis set is read from library:basis_library 
 Basis Set Reference(s):
     P.-O. Widmark, P.-A. Malmqvist, and B. O. Roos                                  
     Theor. Chim. Acta 77, 291 (1990)                                                




 Basis Set    19 Label: O.ANO-RCC-VDZ....acCD-aux-basis.
 On-the-fly basis set generation


 Basis Set    20 Label: C.ANO-RCC-VDZ....acCD-aux-basis.
 On-the-fly basis set generation


 Basis Set    21 Label: H.ANO-RCC-VDZ....acCD-aux-basis.
 On-the-fly basis set generation


 Basis Set    22 Label: N.ANO-RCC-VDZ....acCD-aux-basis.
 On-the-fly basis set generation


 Basis Set    23 Label: C.ANO-RCC-VDZ....acCD-aux-basis.
 On-the-fly basis set generation


 Basis Set    24 Label: P.ANO-RCC-VDZ....acCD-aux-basis.
 On-the-fly basis set generation


 Basis Set    25 Label: H.ANO-RCC-VDZ....acCD-aux-basis.
 On-the-fly basis set generation


 Basis Set    26 Label: C.ANO-RCC-VDZ....acCD-aux-basis.
 On-the-fly basis set generation


 Basis Set    27 Label: N.ANO-RCC-VDZ....acCD-aux-basis.
 On-the-fly basis set generation


 Basis Set    28 Label: C.ANO-RCC-VDZ....acCD-aux-basis.
 On-the-fly basis set generation


 Basis Set    29 Label: H.ANO-RCC-VDZ....acCD-aux-basis.
 On-the-fly basis set generation


 Basis Set    30 Label: C.ANO-RCC-VDZ....acCD-aux-basis.
 On-the-fly basis set generation


 Basis Set    31 Label: H.ANO-RCC-VDZ....acCD-aux-basis.
 On-the-fly basis set generation


 Basis Set    32 Label: O.ANO-RCC-VDZ....acCD-aux-basis.
 On-the-fly basis set generation


 Basis Set    33 Label: H.ANO-RCC-VDZ....acCD-aux-basis.
 On-the-fly basis set generation


 Basis Set    34 Label: RU.ANO-RCC-VDZ....acCD-aux-basis.
 On-the-fly basis set generation


 Basis Set    35 Label: RU.ANO-RCC-VDZ....acCD-aux-basis.
 On-the-fly basis set generation


 Basis Set    36 Label: H.ANO-RCC-VDZ....acCD-aux-basis.
 On-the-fly basis set generation

               ****************************************************************************************
               *                                                                                      *
               *                        GMe-Cis-CI23-D0-VDZ-SA-CAS1311-Pi-PCM                         *
               *                                                                                      *
               ****************************************************************************************

  Weights used for alignment and distance                     
  mat. size =    39x    1
       15.9949146195700003
       15.9949146195700003
       12.0000000000000000
        1.0078250322300000
       14.0030740044299993
       12.0000000000000000
       12.0000000000000000
       12.0000000000000000
       30.9737619984199988
        1.0078250322300000
       12.0000000000000000
       12.0000000000000000
       12.0000000000000000
       14.0030740044299993
       12.0000000000000000
       12.0000000000000000
       12.0000000000000000
        1.0078250322300000
        1.0078250322300000
        1.0078250322300000
       12.0000000000000000
       12.0000000000000000
        1.0078250322300000
        1.0078250322300000
       15.9949146195700003
        1.0078250322300000
        1.0078250322300000
        1.0078250322300000
        1.0078250322300000
        1.0078250322300000
        1.0078250322300000
        1.0078250322300000
        1.0078250322300000
        1.0078250322300000
        1.0078250322300000
        1.0078250322300000
        1.0078250322300000
      101.9043441000000030
        1.0078250322300000


++    Symmetry information:
      ---------------------

                    Character Table for C1 

                             E  
                    a        1  x, y, xy, Rz, z, xz, Ry, yz, Rx, I
--


++    Basis set information:
      ----------------------


      Basis set label: O.ANO-RCC...3S2P.

      Electronic valence basis set:
      ------------------
      Associated Effective Charge   8.000000 au
      Associated Actual Charge      8.000000 au
      Nuclear Model: Point charge

      Shell  nPrim  nBasis  Cartesian Spherical Contaminant
         s      14       3        X                  
         p       9       2        X                  

       Label   Cartesian Coordinates / Bohr

 O1                -0.8263400634       -5.4610605681       -2.3065905048
 O2                 0.0202579774       -2.1906900299       -4.0828971949


      Basis set label: C.ANO-RCC...3S2P.

      Electronic valence basis set:
      ------------------
      Associated Effective Charge   6.000000 au
      Associated Actual Charge      6.000000 au
      Nuclear Model: Point charge

      Shell  nPrim  nBasis  Cartesian Spherical Contaminant
         s      14       3        X                  
         p       9       2        X                  

       Label   Cartesian Coordinates / Bohr

 C3                 4.8142628925       -4.6061653257       -1.3401790088


      Basis set label: H.ANO-RCC...2S.

      Electronic valence basis set:
      ------------------
      Associated Effective Charge   1.000000 au
      Associated Actual Charge      1.000000 au
      Nuclear Model: Point charge

      Shell  nPrim  nBasis  Cartesian Spherical Contaminant
         s       8       2        X                  

       Label   Cartesian Coordinates / Bohr

 H4                 4.6225115133       -0.2692674912       -3.2190580488


      Basis set label: N.ANO-RCC...3S2P.

      Electronic valence basis set:
      ------------------
      Associated Effective Charge   7.000000 au
      Associated Actual Charge      7.000000 au
      Nuclear Model: Point charge

      Shell  nPrim  nBasis  Cartesian Spherical Contaminant
         s      14       3        X                  
         p       9       2        X                  

       Label   Cartesian Coordinates / Bohr

 N5                 4.0154255630       -2.3265219186        0.0813309778


      Basis set label: C.ANO-RCC...3S2P.

      Electronic valence basis set:
      ------------------
      Associated Effective Charge   6.000000 au
      Associated Actual Charge      6.000000 au
      Nuclear Model: Point charge

      Shell  nPrim  nBasis  Cartesian Spherical Contaminant
         s      14       3        X                  
         p       9       2        X                  

       Label   Cartesian Coordinates / Bohr

 C6                 4.9519716571       -0.0167486048       -1.2105866935
 C7                -5.4340910960        1.6622582603       -3.5086231072
 C8                -7.3283102335       -0.0519096995        1.4290601606


      Basis set label: P.ANO-RCC...4S3P.

      Electronic valence basis set:
      ------------------
      Associated Effective Charge  15.000000 au
      Associated Actual Charge     15.000000 au
      Nuclear Model: Point charge

      Shell  nPrim  nBasis  Cartesian Spherical Contaminant
         s      17       4        X                  
         p      12       3        X                  

       Label   Cartesian Coordinates / Bohr

 P9                -4.3354212591        0.5633104258       -0.3365346926


      Basis set label: H.ANO-RCC...2S.

      Electronic valence basis set:
      ------------------
      Associated Effective Charge   1.000000 au
      Associated Actual Charge      1.000000 au
      Nuclear Model: Point charge

      Shell  nPrim  nBasis  Cartesian Spherical Contaminant
         s       8       2        X                  

       Label   Cartesian Coordinates / Bohr

 H10                6.9729763753        0.2122428322       -0.8986894942


      Basis set label: C.ANO-RCC...3S2P.

      Electronic valence basis set:
      ------------------
      Associated Effective Charge   6.000000 au
      Associated Actual Charge      6.000000 au
      Nuclear Model: Point charge

      Shell  nPrim  nBasis  Cartesian Spherical Contaminant
         s      14       3        X                  
         p       9       2        X                  

       Label   Cartesian Coordinates / Bohr

 C11                4.9784178262       -2.4485661387        2.7069542499
 C12               -0.8034661948       -2.1126437930        3.8461022472
 C13                3.5627276291        2.3461964998       -0.3932369076


      Basis set label: N.ANO-RCC...3S2P.

      Electronic valence basis set:
      ------------------
      Associated Effective Charge   7.000000 au
      Associated Actual Charge      7.000000 au
      Nuclear Model: Point charge

      Shell  nPrim  nBasis  Cartesian Spherical Contaminant
         s      14       3        X                  
         p       9       2        X                  

       Label   Cartesian Coordinates / Bohr

 N14                1.0937911121        2.0759702560        0.1010010048


      Basis set label: C.ANO-RCC...3S2P.

      Electronic valence basis set:
      ------------------
      Associated Effective Charge   6.000000 au
      Associated Actual Charge      6.000000 au
      Nuclear Model: Point charge

      Shell  nPrim  nBasis  Cartesian Spherical Contaminant
         s      14       3        X                  
         p       9       2        X                  

       Label   Cartesian Coordinates / Bohr

 C15               -3.1452807032        3.5530866244        1.2413134702
 C16               -0.3979149624        4.0711201949        0.6575844402
 C17                4.6820005453        4.7263189315       -0.3047332475


      Basis set label: H.ANO-RCC...2S.

      Electronic valence basis set:
      ------------------
      Associated Effective Charge   1.000000 au
      Associated Actual Charge      1.000000 au
      Nuclear Model: Point charge

      Shell  nPrim  nBasis  Cartesian Spherical Contaminant
         s       8       2        X                  

       Label   Cartesian Coordinates / Bohr

 H18                6.6673029324        4.9267637311       -0.6852217226
 H19               -3.3326320818        3.2289156729        3.2645823448
 H20               -4.2996611591        5.1736290294        0.7442430095


      Basis set label: C.ANO-RCC...3S2P.

      Electronic valence basis set:
      ------------------
      Associated Effective Charge   6.000000 au
      Associated Actual Charge      6.000000 au
      Nuclear Model: Point charge

      Shell  nPrim  nBasis  Cartesian Spherical Contaminant
         s      14       3        X                  
         p       9       2        X                  

       Label   Cartesian Coordinates / Bohr

 C21                0.6403153481        6.4816854342        0.7324776880
 C22                3.2134667271        6.7952682502        0.2578532620


      Basis set label: H.ANO-RCC...2S.

      Electronic valence basis set:
      ------------------
      Associated Effective Charge   1.000000 au
      Associated Actual Charge      1.000000 au
      Nuclear Model: Point charge

      Shell  nPrim  nBasis  Cartesian Spherical Contaminant
         s       8       2        X                  

       Label   Cartesian Coordinates / Bohr

 H23               -0.5346799034        8.0778722551        1.1740402784
 H24                4.0410507216        8.6520670688        0.3319988208


      Basis set label: O.ANO-RCC...3S2P.

      Electronic valence basis set:
      ------------------
      Associated Effective Charge   8.000000 au
      Associated Actual Charge      8.000000 au
      Nuclear Model: Point charge

      Shell  nPrim  nBasis  Cartesian Spherical Contaminant
         s      14       3        X                  
         p       9       2        X                  

       Label   Cartesian Coordinates / Bohr

 O25               -1.4539844199       -3.1328679615        5.7890836697


      Basis set label: H.ANO-RCC...2S.

      Electronic valence basis set:
      ------------------
      Associated Effective Charge   1.000000 au
      Associated Actual Charge      1.000000 au
      Nuclear Model: Point charge

      Shell  nPrim  nBasis  Cartesian Spherical Contaminant
         s       8       2        X                  

       Label   Cartesian Coordinates / Bohr

 H26               -6.8272103665        3.1622020101       -3.3490293109
 H27               -6.2525167408        0.0797486912       -4.5238147650
 H28               -3.8224655906        2.3223575292       -4.5889779642
 H29               -6.8731360782       -0.6297466579        3.3427414173
 H30               -8.3505184633       -1.5817595557        0.5215443982
 H31               -8.5283834546        1.6135998157        1.4805106189
 H32                4.1153569827       -6.2637815872       -0.3685549113
 H33                6.8734551962       -4.7007662249       -1.4517000622
 H34                4.0005302125       -4.5550682084       -3.2108888950
 H35                4.3799919238       -0.7970684892        3.7530883399
 H36                7.0390682993       -2.5577423255        2.7115924504
 H37                4.2102016944       -4.1002294228        3.6330069406


      Basis set label: RU.ANO-RCC...6S5P3D.

      Electronic valence basis set:
      ------------------
      Associated Effective Charge  44.000000 au
      Associated Actual Charge     44.000000 au
      Nuclear Model: Point charge

      Shell  nPrim  nBasis  Cartesian Spherical Contaminant
         s      21       6        X                  
         p      18       5        X                  
         d      13       3                 X         

       Label   Cartesian Coordinates / Bohr

 RU38              -0.2213263489       -1.7189593037       -0.0763172887


      Basis set label: H.ANO-RCC...2S.

      Electronic valence basis set:
      ------------------
      Associated Effective Charge   1.000000 au
      Associated Actual Charge      1.000000 au
      Nuclear Model: Point charge

      Shell  nPrim  nBasis  Cartesian Spherical Contaminant
         s       8       2        X                  

       Label   Cartesian Coordinates / Bohr

 H39               -2.3324015747       -5.4550021250       -3.3734453284
--


++    Molecular structure info:
      -------------------------

                    ************************************************ 
                    **** Cartesian Coordinates / Bohr, Angstrom **** 
                    ************************************************ 

     Center  Label                x              y              z                     x              y              z
        1      O1              -0.826340      -5.461061      -2.306591             -0.437280      -2.889869      -1.220595
        2      O2               0.020258      -2.190690      -4.082897              0.010720      -1.159263      -2.160576
        3      C3               4.814263      -4.606165      -1.340179              2.547598      -2.437478      -0.709192
        4      H4               4.622512      -0.269267      -3.219058              2.446128      -0.142490      -1.703452
        5      N5               4.015426      -2.326522       0.081331              2.124872      -1.231142       0.043038
        6      C6               4.951972      -0.016749      -1.210587              2.620471      -0.008863      -0.640615
        7      C7              -5.434091       1.662258      -3.508623             -2.875597       0.879629      -1.856683
        8      C8              -7.328310      -0.051910       1.429060             -3.877975      -0.027469       0.756226
        9      P9              -4.335421       0.563310      -0.336535             -2.294206       0.298091      -0.178086
       10      H10              6.972976       0.212243      -0.898689              3.689940       0.112314      -0.475566
       11      C11              4.978418      -2.448566       2.706954              2.634465      -1.295725       1.432459
       12      C12             -0.803466      -2.112644       3.846102             -0.425176      -1.117963       2.035270
       13      C13              3.562728       2.346196      -0.393237              1.885314       1.241554      -0.208092
       14      N14              1.093791       2.075970       0.101001              0.578809       1.098556       0.053447
       15      C15             -3.145281       3.553087       1.241313             -1.664411       1.880212       0.656875
       16      C16             -0.397915       4.071120       0.657584             -0.210568       2.154344       0.347979
       17      C17              4.682001       4.726319      -0.304733              2.477608       2.501060      -0.161258
       18      H18              6.667303       4.926764      -0.685222              3.528185       2.607131      -0.362604
       19      H19             -3.332632       3.228916       3.264582             -1.763553       1.708669       1.727543
       20      H20             -4.299661       5.173629       0.744243             -2.275283       2.737767       0.393836
       21      C21              0.640315       6.481685       0.732478              0.338840       3.429960       0.387611
       22      C22              3.213467       6.795268       0.257853              1.700493       3.595901       0.136450
       23      H23             -0.534680       8.077872       1.174040             -0.282940       4.274626       0.621275
       24      H24              4.041051       8.652067       0.331999              2.138432       4.578477       0.175686
       25      O25             -1.453984      -3.132868       5.789084             -0.769415      -1.657842       3.063451
       26      H26             -6.827210       3.162202      -3.349029             -3.612804       1.673365      -1.772230
       27      H27             -6.252517       0.079749      -4.523815             -3.308689       0.042201      -2.393900
       28      H28             -3.822466       2.322358      -4.588978             -2.022762       1.228939      -2.428383
       29      H29             -6.873136      -0.629747       3.342741             -3.637107      -0.333248       1.768903
       30      H30             -8.350518      -1.581760       0.521544             -4.418904      -0.837031       0.275989
       31      H31             -8.528383       1.613600       1.480511             -4.513026       0.853880       0.783452
       32      H32              4.115357      -6.263782      -0.368555              2.177753      -3.314650      -0.195031
       33      H33              6.873455      -4.700766      -1.451700              3.637276      -2.487538      -0.768207
       34      H34              4.000530      -4.555068      -3.210889              2.116989      -2.410438      -1.699129
       35      H35              4.379992      -0.797068       3.753088              2.317792      -0.421790       1.986049
       36      H36              7.039068      -2.557742       2.711592              3.724915      -1.353499       1.434913
       37      H37              4.210202      -4.100229       3.633007              2.227943      -2.169748       1.922504
       38      RU38            -0.221326      -1.718959      -0.076317             -0.117121      -0.909634      -0.040385
       39      H39             -2.332402      -5.455002      -3.373445             -1.234254      -2.886663      -1.785150

                    ************************************************* 
                    **** InterNuclear Distances / Bohr, Angstrom **** 
                    ************************************************* 

     Atom centers         Bohr        Angstrom
   39 H39       1 O1      1.845654        0.976678
   23 H23      21 C21     2.030617        1.074556
   18 H18      17 C17     2.031348        1.074943
   24 H24      22 C22     2.034231        1.076469
   34 H34       3 C3      2.040668        1.079875
   37 H37      11 C11     2.043458        1.081351
   35 H35      11 C11     2.044494        1.081899
   32 H32       3 C3      2.044557        1.081933
   28 H28       7 C7      2.049447        1.084521
   29 H29       8 C8      2.050184        1.084911
   27 H27       7 C7      2.050554        1.085106
   20 H20      15 C15     2.050812        1.085243
    6 C6        4 H4      2.050919        1.085299
   30 H30       8 C8      2.051569        1.085644
   26 H26       7 C7      2.053310        1.086565
   31 H31       8 C8      2.053471        1.086650
   19 H19      15 C15     2.057621        1.088846
   10 H10       6 C6      2.057712        1.088894
   36 H36      11 C11     2.063546        1.091981
   33 H33       3 C3      2.064379        1.092422
   25 O25      12 C12     2.288932        1.211250
   14 N14      13 C13     2.532378        1.340077
   16 C16      14 N14     2.552566        1.350760
   22 C22      17 C17     2.598778        1.375214
   21 C21      16 C16     2.625711        1.389466
   17 C17      13 C13     2.631651        1.392610
   22 C22      21 C21     2.635282        1.394531
   11 C11       5 N5      2.799312        1.481332
    5 N5        3 C3      2.802785        1.483170
    6 C6        5 N5      2.807352        1.485586
   16 C16      15 C15     2.856067        1.511365
   13 C13       6 C6      2.860344        1.513629
   28 H28      27 H27     3.307369        1.750184
   37 H37      35 H35     3.309701        1.751418
   34 H34      32 H32     3.318396        1.756019
   30 H30      29 H29     3.323874        1.758918
   20 H20      19 H19     3.327036        1.760591
   10 H10       4 H4      3.337761        1.766267
   31 H31      30 H30     3.340894        1.767925
   27 H27      26 H26     3.348419        1.771907
   33 H33      32 H32     3.350123        1.772809
   37 H37      36 H36     3.351232        1.773396
   31 H31      29 H29     3.352663        1.774153
   36 H36      35 H35     3.354903        1.775338
   28 H28      26 H26     3.357276        1.776594
   34 H34      33 H33     3.371894        1.784330
    9 P9        8 C8      3.528910        1.867419
    9 P9        7 C7      3.532267        1.869195
   15 C15       9 P9      3.583964        1.896552
    2 O2        1 O1      3.816715        2.019719
    5 N5        4 H4      3.936168        2.082930
   32 H32       5 N5      3.964139        2.097732
   37 H37       5 N5      3.974717        2.103330
   34 H34       5 N5      3.975595        2.103794
   38 RU38     12 C12     3.984878        2.108706
   13 C13       4 H4      3.993627        2.113337
   35 H35       5 N5      3.994238        2.113660
   36 H36       5 N5      4.014244        2.124246
   19 H19      16 C16     4.014762        2.124520
   10 H10       5 N5      4.019064        2.126797
   33 H33       5 N5      4.019397        2.126973
   38 RU38     14 N14     4.020257        2.127428
   24 H24      17 C17     4.028367        2.131720
   22 C22      18 H18     4.038525        2.137095
   38 RU38      2 O2      4.041482        2.138660
   23 H23      16 C16     4.042214        2.139047
   18 H18      13 C13     4.047588        2.141891
   24 H24      21 C21     4.054126        2.145351
   13 C13      10 H10     4.054508        2.145553
   20 H20      16 C16     4.055448        2.146051
   23 H23      22 C22     4.066088        2.151681
   39 H39       2 O2      4.085837        2.162132
   38 RU38      5 N5      4.282996        2.266464
   34 H34       4 H4      4.330706        2.291711
   38 RU38      1 O1      4.398123        2.327386
   16 C16      13 C13     4.445928        2.352684
   21 C21      14 N14     4.473782        2.367424
   17 C17      14 N14     4.479310        2.370349
   22 C22      13 C13     4.510005        2.386592
   21 C21      17 C17     4.526846        2.395504
   22 C22      16 C16     4.541238        2.403120
   37 H37      32 H32     4.549995        2.407753
   36 H36      10 H10     4.550969        2.408269
   14 N14       6 C6      4.580971        2.424145
   11 C11       3 C3      4.589278        2.428541
   19 H19       9 P9      4.591196        2.429556
    6 C6        3 C3      4.593311        2.430675
   11 C11       6 C6      4.611026        2.440050
   29 H29       9 P9      4.626063        2.448007
   28 H28       9 P9      4.630404        2.450304
   27 H27       9 P9      4.630594        2.450405
   15 C15      14 N14     4.631621        2.450948
   30 H30       9 P9      4.632346        2.451332
   24 H24      18 H18     4.670099        2.471310
   36 H36      33 H33     4.685401        2.479407
   24 H24      23 H23     4.687861        2.480709
   31 H31       9 P9      4.688890        2.481254
   26 H26       9 P9      4.694505        2.484225
   34 H34       2 O2      4.710971        2.492939
   38 RU38      9 P9      4.711926        2.493444
   13 C13       5 N5      4.718522        2.496934
   18 H18      10 H10     4.729240        2.502606
    4 H4        3 C3      4.730289        2.503161
   20 H20       9 P9      4.735441        2.505887
   23 H23      20 H20     4.774352        2.526478
   21 C21      15 C15     4.813143        2.547005
   17 C17       6 C6      4.836336        2.559279
   11 C11      10 H10     4.904981        2.595604
   33 H33      10 H10     4.945036        2.616800
   32 H32      11 C11     4.975892        2.633129
   34 H34       1 O1      4.993721        2.642564
   37 H37       3 C3      5.035220        2.664524
   34 H34       6 C6      5.050029        2.672360
   36 H36       3 C3      5.055952        2.675494
   35 H35       6 C6      5.057087        2.676095
    4 H4        2 O2      5.061504        2.678432
   33 H33       6 C6      5.068556        2.682164
   33 H33      11 C11     5.094897        2.696103
   17 C17      10 H10     5.096885        2.697155
   21 C21      20 H20     5.110237        2.704221
   36 H36       6 C6      5.118214        2.708442
   22 C22      14 N14     5.175848        2.738941
   21 C21      13 C13     5.187485        2.745099
   17 C17      16 C16     5.211610        2.757865
   26 H26      20 H20     5.214329        2.759304
   23 H23      15 C15     5.224313        2.764587
   29 H29      19 H19     5.237418        2.771523
   18 H18       6 C6      5.258962        2.782923
   35 H35      13 C13     5.266882        2.787114
   33 H33       4 H4      5.275271        2.791553
   14 N14       5 N5      5.283774        2.796053
   10 H10       3 C3      5.298303        2.803741
   35 H35      12 C12     5.348610        2.830362
   31 H31      26 H26     5.349450        2.830807
   16 C16       9 P9      5.366280        2.839713
   32 H32       1 O1      5.368493        2.840884
   14 N14       4 H4      5.382825        2.848468
   37 H37      12 C12     5.397478        2.856223
   39 H39      38 RU38    5.411627        2.863710
   35 H35      10 H10     5.420453        2.868380
   19 H19       8 C8      5.486201        2.903173
   15 C15       8 C8      5.525304        2.923865
    8 C8        7 C7      5.559420        2.941919
   19 H19      14 N14     5.561542        2.943041
   38 RU38     13 C13     5.562823        2.943719
   38 RU38      6 C6      5.563012        2.943819
   31 H31      20 H20     5.576557        2.950987
   15 C15       7 C7      5.601409        2.964138
   20 H20       7 C7      5.630588        2.979579
   36 H36      32 H32     5.636499        2.982707
   14 N14       9 P9      5.652957        2.991416
--


++    Isotope specification:
      ----------------------

 Center
 Type   Z    A    mass (Da)
 --------------------------
    1   8   16    15.994915
    2   6   12    12.000000
    3   1    1     1.007825
    4   7   14    14.003074
    5   6   12    12.000000
    6  15   31    30.973762
    7   1    1     1.007825
    8   6   12    12.000000
    9   7   14    14.003074
   10   6   12    12.000000
   11   1    1     1.007825
   12   6   12    12.000000
   13   1    1     1.007825
   14   8   16    15.994915
   15   1    1     1.007825
   16  44  102   101.904344
   17   1    1     1.007825
--


++    Rigid rotor info:
      -----------------


                    Total mass (a) : 373.02550

                    Center of mass 
                          X          Y          Z   
                      -0.00764   -0.22074    0.05192

                    Reference system based on center of mass
                    Coordinates and Masses of Atoms, in au and A
                          X          Y          Z        Mass
                      -0.81870   -5.24032   -2.35851   15.99491
                       0.02790   -1.96995   -4.13482   15.99491
                       4.82191   -4.38543   -1.39210   12.00000
                       4.63016   -0.04853   -3.27098    1.00783
                       4.02307   -2.10579    0.02941   14.00307
                       4.95962    0.20399   -1.26251   12.00000
                      -5.42645    1.88299   -3.56054   12.00000
                      -7.32067    0.16883    1.37714   12.00000
                      -4.32778    0.78405   -0.38846   30.97376
                       6.98062    0.43298   -0.95061    1.00783
                       4.98606   -2.22783    2.65503   12.00000
                      -0.79582   -1.89191    3.79418   12.00000
                       3.57037    2.56693   -0.44516   12.00000
                       1.10144    2.29671    0.04908   14.00307
                      -3.13764    3.77382    1.18939   12.00000
                      -0.39027    4.29186    0.60566   12.00000
                       4.68964    4.94706   -0.35665   12.00000
                       6.67495    5.14750   -0.73714    1.00783
                      -3.32499    3.44965    3.21266    1.00783
                      -4.29202    5.39437    0.69232    1.00783
                       0.64796    6.70242    0.68056   12.00000
                       3.22111    7.01600    0.20593   12.00000
                      -0.52704    8.29861    1.12212    1.00783
                       4.04869    8.87280    0.28008    1.00783
                      -1.44634   -2.91213    5.73716   15.99491
                      -6.81957    3.38294   -3.40095    1.00783
                      -6.24487    0.30048   -4.57574    1.00783
                      -3.81482    2.54309   -4.64090    1.00783
                      -6.86549   -0.40901    3.29082    1.00783
                      -8.34287   -1.36102    0.46962    1.00783
                      -8.52074    1.83434    1.42859    1.00783
                       4.12300   -6.04305   -0.42048    1.00783
                       6.88110   -4.48003   -1.50362    1.00783
                       4.00817   -4.33433   -3.26281    1.00783
                       4.38764   -0.57633    3.70117    1.00783
                       7.04671   -2.33701    2.65967    1.00783
                       4.21785   -3.87949    3.58109    1.00783
                      -0.21368   -1.49822   -0.12824  101.90434
                      -2.32476   -5.23427   -3.42537    1.00783

                    The Moment of Inertia Tensor / au
                                     X          Y        Z     
                    X             0.9496E+07
                    Y             0.1175E+06 0.1020E+08
                    Z             0.3291E+05-0.8566E+05 0.1404E+08

                    The Principal Axes and Moments of Inertia (au)
                    Eigenvalues : 0.1404E+08 0.1022E+08 0.9476E+07
                                     X'         Y'       Z'    
                    Eigenvectors:
                    X             0.6671E-02 0.1616E+00 0.9868E+00
                    Y            -0.2211E-01 0.9866E+00-0.1615E+00
                    Z             0.9997E+00 0.2074E-01-0.1016E-01

                    The Rotational Constants
                            (cm-1)            (GHz)
                              0.008            0.234
                              0.011            0.322
                              0.012            0.347


                    *******************************************
                    *                                         *
                    * R I G I D - R O T O R   A N A L Y S I S *
                    *                                         *
                    *******************************************

                    j(Max):  5

                    Rotor Type: Linear Rotor
                    Asymmetry parameter:  0.554
                    Prolate = -1
                    Oblate  =  1


                    Rotational energies / cm-1

                    E(J= 0,kappa= 0) =        0.000

                    E(J= 1,kappa=-1) =        0.019
                    E(J= 1,kappa= 0) =        0.019
                    E(J= 1,kappa= 1) =        0.022

                    E(J= 2,kappa=-2) =        0.053
                    E(J= 2,kappa=-1) =        0.054
                    E(J= 2,kappa= 0) =        0.062
                    E(J= 2,kappa= 1) =        0.065
                    E(J= 2,kappa= 2) =        0.067

                    E(J= 3,kappa=-3) =        0.104
                    E(J= 3,kappa=-2) =        0.104
                    E(J= 3,kappa=-1) =        0.120
                    E(J= 3,kappa= 0) =        0.121
                    E(J= 3,kappa= 1) =        0.128
                    E(J= 3,kappa= 2) =        0.133
                    E(J= 3,kappa= 3) =        0.135

                    E(J= 4,kappa=-4) =        0.170
                    E(J= 4,kappa=-3) =        0.170
                    E(J= 4,kappa=-2) =        0.193
                    E(J= 4,kappa=-1) =        0.193
                    E(J= 4,kappa= 0) =        0.208
                    E(J= 4,kappa= 1) =        0.210
                    E(J= 4,kappa= 2) =        0.216
                    E(J= 4,kappa= 3) =        0.224
                    E(J= 4,kappa= 4) =        0.225

                    E(J= 5,kappa=-5) =        0.251
                    E(J= 5,kappa=-4) =        0.251
                    E(J= 5,kappa=-3) =        0.281
                    E(J= 5,kappa=-2) =        0.281
                    E(J= 5,kappa=-1) =        0.303
                    E(J= 5,kappa= 0) =        0.304
                    E(J= 5,kappa= 1) =        0.318
                    E(J= 5,kappa= 2) =        0.322
                    E(J= 5,kappa= 3) =        0.327
                    E(J= 5,kappa= 4) =        0.339
                    E(J= 5,kappa= 5) =        0.339
--


++    Primitive basis info:
      ---------------------


                    *****************************************************
                    ******** Primitive Basis Functions (Valence) ********
                    *****************************************************


 Basis set:O.ANO-RCC...3S2P.                                                               

                  Type         
                   s
           No.      Exponent    Contraction Coefficients
            1  0.105374950D+06   0.000124  -0.000028   0.000026
            2  0.156792400D+05   0.000512  -0.000116   0.000107
            3  0.353454470D+04   0.002153  -0.000491   0.000460
            4  0.987365160D+03   0.008528  -0.001946   0.001796
            5  0.315978750D+03   0.030180  -0.007005   0.006676
            6  0.111654280D+03   0.090997  -0.021678   0.020534
            7  0.426994510D+02   0.217794  -0.056412   0.058286
            8  0.173955960D+02   0.368625  -0.112705   0.121297
            9  0.743830900D+01   0.336671  -0.158912   0.226415
           10  0.322286200D+01   0.096576  -0.033551  -0.042387
           11  0.125387700D+01   0.002145   0.353190  -1.010455
           12  0.495155000D+00   0.001194   0.553420  -0.153869
           13  0.191665000D+00   0.000539   0.230184   0.993453
           14  0.670830000D-01   0.000210   0.011273   0.185873

                  Type         
                   p
           No.      Exponent    Contraction Coefficients
           15  0.200000000D+03   0.000917  -0.000872
           16  0.465333670D+02   0.007377  -0.007064
           17  0.146218090D+02   0.034835  -0.033305
           18  0.531306400D+01   0.114440  -0.114413
           19  0.210252500D+01   0.255497  -0.299011
           20  0.850223000D+00   0.372256  -0.319861
           21  0.337597000D+00   0.332331   0.205509
           22  0.128892000D+00   0.140085   0.593593
           23  0.451120000D-01   0.023958   0.282290


 Basis set:C.ANO-RCC...3S2P.                                                               

                  Type         
                   s
           No.      Exponent    Contraction Coefficients
           47  0.505575010D+05   0.000113  -0.000025   0.000016
           48  0.752478560D+04   0.000530  -0.000118   0.000075
           49  0.169432760D+04   0.002450  -0.000546   0.000357
           50  0.472822790D+03   0.010054  -0.002245   0.001435
           51  0.151710750D+03   0.035454  -0.008043   0.005509
           52  0.539187460D+02   0.104407  -0.024426   0.016915
           53  0.206593110D+02   0.241289  -0.061368   0.051417
           54  0.838397600D+01   0.383423  -0.117777   0.113734
           55  0.357701500D+01   0.307851  -0.155049   0.233718
           56  0.154711800D+01   0.068724  -0.019333  -0.071838
           57  0.613013000D+00   0.000222   0.399693  -1.049091
           58  0.246068000D+00   0.001977   0.558942  -0.066627
           59  0.990870000D-01   0.002058   0.171120   1.011999
           60  0.346800000D-01   0.000418   0.007456   0.165605

                  Type         
                   p
           No.      Exponent    Contraction Coefficients
           61  0.833331550D+02   0.001345  -0.001772
           62  0.195576110D+02   0.010236  -0.014562
           63  0.608036500D+01   0.045201  -0.057457
           64  0.217931700D+01   0.141076  -0.212658
           65  0.865150000D+00   0.304739  -0.527171
           66  0.361944000D+00   0.399528  -0.092970
           67  0.154740000D+00   0.271916   0.663003
           68  0.654290000D-01   0.058577   0.336088
           69  0.229000000D-01  -0.000126   0.005470


 Basis set:H.ANO-RCC...2S.                                                                 

                  Type         
                   s
           No.      Exponent    Contraction Coefficients
           70  0.188614450D+03   0.000964  -0.001312
           71  0.282765960D+02   0.007492  -0.010345
           72  0.642483000D+01   0.037595  -0.050495
           73  0.181504100D+01   0.143395  -0.207386
           74  0.591063000D+00   0.348636  -0.435088
           75  0.212149000D+00   0.438297  -0.024730
           76  0.798910000D-01   0.165107   0.322526
           77  0.279620000D-01   0.021023   0.707275


 Basis set:N.ANO-RCC...3S2P.                                                               

                  Type         
                   s
           No.      Exponent    Contraction Coefficients
           78  0.747617150D+05   0.000118  -0.000027   0.000019
           79  0.111236540D+05   0.000517  -0.000118   0.000081
           80  0.251268570D+04   0.002267  -0.000520   0.000366
           81  0.703777290D+03   0.009145  -0.002103   0.001443
           82  0.225478790D+03   0.032393  -0.007568   0.005532
           83  0.796158100D+02   0.097708  -0.023468   0.017244
           84  0.302372830D+02   0.231704  -0.060429   0.052795
           85  0.122636220D+02   0.376890  -0.117055   0.115288
           86  0.526508600D+01   0.317742  -0.155532   0.235259
           87  0.233347100D+01   0.082113  -0.024689  -0.048964
           88  0.901856000D+00   0.003312   0.362505  -1.023218
           89  0.358336000D+00   0.003721   0.555084  -0.148159
           90  0.141093000D+00   0.003165   0.214838   1.021558
           91  0.493830000D-01   0.000460   0.008984   0.172402

                  Type         
                   p
           No.      Exponent    Contraction Coefficients
           92  0.126666570D+03   0.001234  -0.001466
           93  0.298373890D+02   0.009493  -0.011821
           94  0.939403800D+01   0.042940  -0.049831
           95  0.340510400D+01   0.136293  -0.173090
           96  0.135000000D+01   0.292136  -0.473237
           97  0.557696000D+00   0.388789  -0.205511
           98  0.232449000D+00   0.294680   0.591038
           99  0.942640000D-01   0.080129   0.451180
          100  0.329920000D-01   0.000541   0.013675


 Basis set:C.ANO-RCC...3S2P.                                                               

                  Type         
                   s
           No.      Exponent    Contraction Coefficients
          101  0.505575010D+05   0.000113  -0.000025   0.000016
          102  0.752478560D+04   0.000530  -0.000118   0.000075
          103  0.169432760D+04   0.002450  -0.000546   0.000357
          104  0.472822790D+03   0.010054  -0.002245   0.001435
          105  0.151710750D+03   0.035454  -0.008043   0.005509
          106  0.539187460D+02   0.104407  -0.024426   0.016915
          107  0.206593110D+02   0.241289  -0.061368   0.051417
          108  0.838397600D+01   0.383423  -0.117777   0.113734
          109  0.357701500D+01   0.307851  -0.155049   0.233718
          110  0.154711800D+01   0.068724  -0.019333  -0.071838
          111  0.613013000D+00   0.000222   0.399693  -1.049091
          112  0.246068000D+00   0.001977   0.558942  -0.066627
          113  0.990870000D-01   0.002058   0.171120   1.011999
          114  0.346800000D-01   0.000418   0.007456   0.165605

                  Type         
                   p
           No.      Exponent    Contraction Coefficients
          115  0.833331550D+02   0.001345  -0.001772
          116  0.195576110D+02   0.010236  -0.014562
          117  0.608036500D+01   0.045201  -0.057457
          118  0.217931700D+01   0.141076  -0.212658
          119  0.865150000D+00   0.304739  -0.527171
          120  0.361944000D+00   0.399528  -0.092970
          121  0.154740000D+00   0.271916   0.663003
          122  0.654290000D-01   0.058577   0.336088
          123  0.229000000D-01  -0.000126   0.005470


 Basis set:P.ANO-RCC...4S3P.                                                               

                  Type         
                   s
           No.      Exponent    Contraction Coefficients
          170  0.296647550D+06  -0.000278   0.000066   0.000042  -0.000021
          171  0.423800300D+05  -0.000920   0.000218   0.000140  -0.000069
          172  0.125038560D+05  -0.002112   0.000503   0.000324  -0.000158
          173  0.442249370D+04  -0.006118   0.001461   0.000938  -0.000457
          174  0.168184780D+04  -0.017156   0.004147   0.002667  -0.001290
          175  0.663214900D+03  -0.048906   0.012039   0.007700  -0.003702
          176  0.267005850D+03  -0.128061   0.033290   0.021236  -0.009969
          177  0.108895920D+03  -0.280856   0.081855   0.051433  -0.023169
          178  0.447973140D+02  -0.408791   0.158144   0.097900  -0.040366
          179  0.185403120D+02  -0.239938   0.141889   0.085829  -0.033441
          180  0.770709950D+01  -0.020129  -0.179413  -0.105386   0.039743
          181  0.321437500D+01  -0.005211  -0.551931  -0.405333   0.236354
          182  0.134401270D+01  -0.001161  -0.269939  -0.366796   0.478799
          183  0.563087000D+00   0.003590  -0.048811   0.252762  -0.852342
          184  0.236287000D+00   0.014643  -0.145579   0.631092  -1.009743
          185  0.992811000D-01   0.006883  -0.080411   0.309338   1.172316
          186  0.397124000D-01   0.000538  -0.008907   0.021962   0.410274

                  Type         
                   p
           No.      Exponent    Contraction Coefficients
          187  0.101841220D+04   0.000823  -0.000196   0.000196
          188  0.247398200D+03   0.005507  -0.001308   0.001270
          189  0.877904820D+02   0.023423  -0.005636   0.005713
          190  0.342486000D+02   0.085691  -0.020859   0.020321
          191  0.138770140D+02   0.228880  -0.057676   0.059638
          192  0.573030980D+01   0.397112  -0.102511   0.099600
          193  0.239200680D+01   0.367905  -0.105932   0.125349
          194  0.100527670D+01   0.105637   0.060910  -0.109693
          195  0.424392900D+00  -0.000359   0.393662  -0.721429
          196  0.179730600D+00  -0.000516   0.471351  -0.003709
          197  0.762910000D-01  -0.001324   0.204967   0.646806
          198  0.305164000D-01   0.000005   0.030803   0.374610


 Basis set:H.ANO-RCC...2S.                                                                 

                  Type         
                   s
           No.      Exponent    Contraction Coefficients
          199  0.188614450D+03   0.000964  -0.001312
          200  0.282765960D+02   0.007492  -0.010345
          201  0.642483000D+01   0.037595  -0.050495
          202  0.181504100D+01   0.143395  -0.207386
          203  0.591063000D+00   0.348636  -0.435088
          204  0.212149000D+00   0.438297  -0.024730
          205  0.798910000D-01   0.165107   0.322526
          206  0.279620000D-01   0.021023   0.707275


 Basis set:C.ANO-RCC...3S2P.                                                               

                  Type         
                   s
           No.      Exponent    Contraction Coefficients
          207  0.505575010D+05   0.000113  -0.000025   0.000016
          208  0.752478560D+04   0.000530  -0.000118   0.000075
          209  0.169432760D+04   0.002450  -0.000546   0.000357
          210  0.472822790D+03   0.010054  -0.002245   0.001435
          211  0.151710750D+03   0.035454  -0.008043   0.005509
          212  0.539187460D+02   0.104407  -0.024426   0.016915
          213  0.206593110D+02   0.241289  -0.061368   0.051417
          214  0.838397600D+01   0.383423  -0.117777   0.113734
          215  0.357701500D+01   0.307851  -0.155049   0.233718
          216  0.154711800D+01   0.068724  -0.019333  -0.071838
          217  0.613013000D+00   0.000222   0.399693  -1.049091
          218  0.246068000D+00   0.001977   0.558942  -0.066627
          219  0.990870000D-01   0.002058   0.171120   1.011999
          220  0.346800000D-01   0.000418   0.007456   0.165605

                  Type         
                   p
           No.      Exponent    Contraction Coefficients
          221  0.833331550D+02   0.001345  -0.001772
          222  0.195576110D+02   0.010236  -0.014562
          223  0.608036500D+01   0.045201  -0.057457
          224  0.217931700D+01   0.141076  -0.212658
          225  0.865150000D+00   0.304739  -0.527171
          226  0.361944000D+00   0.399528  -0.092970
          227  0.154740000D+00   0.271916   0.663003
          228  0.654290000D-01   0.058577   0.336088
          229  0.229000000D-01  -0.000126   0.005470


 Basis set:N.ANO-RCC...3S2P.                                                               

                  Type         
                   s
           No.      Exponent    Contraction Coefficients
          276  0.747617150D+05   0.000118  -0.000027   0.000019
          277  0.111236540D+05   0.000517  -0.000118   0.000081
          278  0.251268570D+04   0.002267  -0.000520   0.000366
          279  0.703777290D+03   0.009145  -0.002103   0.001443
          280  0.225478790D+03   0.032393  -0.007568   0.005532
          281  0.796158100D+02   0.097708  -0.023468   0.017244
          282  0.302372830D+02   0.231704  -0.060429   0.052795
          283  0.122636220D+02   0.376890  -0.117055   0.115288
          284  0.526508600D+01   0.317742  -0.155532   0.235259
          285  0.233347100D+01   0.082113  -0.024689  -0.048964
          286  0.901856000D+00   0.003312   0.362505  -1.023218
          287  0.358336000D+00   0.003721   0.555084  -0.148159
          288  0.141093000D+00   0.003165   0.214838   1.021558
          289  0.493830000D-01   0.000460   0.008984   0.172402

                  Type         
                   p
           No.      Exponent    Contraction Coefficients
          290  0.126666570D+03   0.001234  -0.001466
          291  0.298373890D+02   0.009493  -0.011821
          292  0.939403800D+01   0.042940  -0.049831
          293  0.340510400D+01   0.136293  -0.173090
          294  0.135000000D+01   0.292136  -0.473237
          295  0.557696000D+00   0.388789  -0.205511
          296  0.232449000D+00   0.294680   0.591038
          297  0.942640000D-01   0.080129   0.451180
          298  0.329920000D-01   0.000541   0.013675


 Basis set:C.ANO-RCC...3S2P.                                                               

                  Type         
                   s
           No.      Exponent    Contraction Coefficients
          299  0.505575010D+05   0.000113  -0.000025   0.000016
          300  0.752478560D+04   0.000530  -0.000118   0.000075
          301  0.169432760D+04   0.002450  -0.000546   0.000357
          302  0.472822790D+03   0.010054  -0.002245   0.001435
          303  0.151710750D+03   0.035454  -0.008043   0.005509
          304  0.539187460D+02   0.104407  -0.024426   0.016915
          305  0.206593110D+02   0.241289  -0.061368   0.051417
          306  0.838397600D+01   0.383423  -0.117777   0.113734
          307  0.357701500D+01   0.307851  -0.155049   0.233718
          308  0.154711800D+01   0.068724  -0.019333  -0.071838
          309  0.613013000D+00   0.000222   0.399693  -1.049091
          310  0.246068000D+00   0.001977   0.558942  -0.066627
          311  0.990870000D-01   0.002058   0.171120   1.011999
          312  0.346800000D-01   0.000418   0.007456   0.165605

                  Type         
                   p
           No.      Exponent    Contraction Coefficients
          313  0.833331550D+02   0.001345  -0.001772
          314  0.195576110D+02   0.010236  -0.014562
          315  0.608036500D+01   0.045201  -0.057457
          316  0.217931700D+01   0.141076  -0.212658
          317  0.865150000D+00   0.304739  -0.527171
          318  0.361944000D+00   0.399528  -0.092970
          319  0.154740000D+00   0.271916   0.663003
          320  0.654290000D-01   0.058577   0.336088
          321  0.229000000D-01  -0.000126   0.005470


 Basis set:H.ANO-RCC...2S.                                                                 

                  Type         
                   s
           No.      Exponent    Contraction Coefficients
          368  0.188614450D+03   0.000964  -0.001312
          369  0.282765960D+02   0.007492  -0.010345
          370  0.642483000D+01   0.037595  -0.050495
          371  0.181504100D+01   0.143395  -0.207386
          372  0.591063000D+00   0.348636  -0.435088
          373  0.212149000D+00   0.438297  -0.024730
          374  0.798910000D-01   0.165107   0.322526
          375  0.279620000D-01   0.021023   0.707275


 Basis set:C.ANO-RCC...3S2P.                                                               

                  Type         
                   s
           No.      Exponent    Contraction Coefficients
          392  0.505575010D+05   0.000113  -0.000025   0.000016
          393  0.752478560D+04   0.000530  -0.000118   0.000075
          394  0.169432760D+04   0.002450  -0.000546   0.000357
          395  0.472822790D+03   0.010054  -0.002245   0.001435
          396  0.151710750D+03   0.035454  -0.008043   0.005509
          397  0.539187460D+02   0.104407  -0.024426   0.016915
          398  0.206593110D+02   0.241289  -0.061368   0.051417
          399  0.838397600D+01   0.383423  -0.117777   0.113734
          400  0.357701500D+01   0.307851  -0.155049   0.233718
          401  0.154711800D+01   0.068724  -0.019333  -0.071838
          402  0.613013000D+00   0.000222   0.399693  -1.049091
          403  0.246068000D+00   0.001977   0.558942  -0.066627
          404  0.990870000D-01   0.002058   0.171120   1.011999
          405  0.346800000D-01   0.000418   0.007456   0.165605

                  Type         
                   p
           No.      Exponent    Contraction Coefficients
          406  0.833331550D+02   0.001345  -0.001772
          407  0.195576110D+02   0.010236  -0.014562
          408  0.608036500D+01   0.045201  -0.057457
          409  0.217931700D+01   0.141076  -0.212658
          410  0.865150000D+00   0.304739  -0.527171
          411  0.361944000D+00   0.399528  -0.092970
          412  0.154740000D+00   0.271916   0.663003
          413  0.654290000D-01   0.058577   0.336088
          414  0.229000000D-01  -0.000126   0.005470


 Basis set:H.ANO-RCC...2S.                                                                 

                  Type         
                   s
           No.      Exponent    Contraction Coefficients
          438  0.188614450D+03   0.000964  -0.001312
          439  0.282765960D+02   0.007492  -0.010345
          440  0.642483000D+01   0.037595  -0.050495
          441  0.181504100D+01   0.143395  -0.207386
          442  0.591063000D+00   0.348636  -0.435088
          443  0.212149000D+00   0.438297  -0.024730
          444  0.798910000D-01   0.165107   0.322526
          445  0.279620000D-01   0.021023   0.707275


 Basis set:O.ANO-RCC...3S2P.                                                               

                  Type         
                   s
           No.      Exponent    Contraction Coefficients
          454  0.105374950D+06   0.000124  -0.000028   0.000026
          455  0.156792400D+05   0.000512  -0.000116   0.000107
          456  0.353454470D+04   0.002153  -0.000491   0.000460
          457  0.987365160D+03   0.008528  -0.001946   0.001796
          458  0.315978750D+03   0.030180  -0.007005   0.006676
          459  0.111654280D+03   0.090997  -0.021678   0.020534
          460  0.426994510D+02   0.217794  -0.056412   0.058286
          461  0.173955960D+02   0.368625  -0.112705   0.121297
          462  0.743830900D+01   0.336671  -0.158912   0.226415
          463  0.322286200D+01   0.096576  -0.033551  -0.042387
          464  0.125387700D+01   0.002145   0.353190  -1.010455
          465  0.495155000D+00   0.001194   0.553420  -0.153869
          466  0.191665000D+00   0.000539   0.230184   0.993453
          467  0.670830000D-01   0.000210   0.011273   0.185873

                  Type         
                   p
           No.      Exponent    Contraction Coefficients
          468  0.200000000D+03   0.000917  -0.000872
          469  0.465333670D+02   0.007377  -0.007064
          470  0.146218090D+02   0.034835  -0.033305
          471  0.531306400D+01   0.114440  -0.114413
          472  0.210252500D+01   0.255497  -0.299011
          473  0.850223000D+00   0.372256  -0.319861
          474  0.337597000D+00   0.332331   0.205509
          475  0.128892000D+00   0.140085   0.593593
          476  0.451120000D-01   0.023958   0.282290


 Basis set:H.ANO-RCC...2S.                                                                 

                  Type         
                   s
           No.      Exponent    Contraction Coefficients
          477  0.188614450D+03   0.000964  -0.001312
          478  0.282765960D+02   0.007492  -0.010345
          479  0.642483000D+01   0.037595  -0.050495
          480  0.181504100D+01   0.143395  -0.207386
          481  0.591063000D+00   0.348636  -0.435088
          482  0.212149000D+00   0.438297  -0.024730
          483  0.798910000D-01   0.165107   0.322526
          484  0.279620000D-01   0.021023   0.707275


 Basis set:RU.ANO-RCC...6S5P3D.                                                            

                  Type         
                   s
           No.      Exponent    Contraction Coefficients
          573  0.240082896D+08   0.000211  -0.000071   0.000030  -0.000012   0.000003  -0.000004
          574  0.333598099D+07   0.000629  -0.000211   0.000090  -0.000037   0.000009  -0.000013
          575  0.671907416D+06   0.001790  -0.000602   0.000258  -0.000104   0.000027  -0.000036
          576  0.167149978D+06   0.004624  -0.001562   0.000669  -0.000271   0.000070  -0.000094
          577  0.483819012D+05   0.011573  -0.003941   0.001691  -0.000685   0.000177  -0.000237
          578  0.157041609D+05   0.028678  -0.009929   0.004269  -0.001726   0.000444  -0.000595
          579  0.557449458D+04   0.070513  -0.025133   0.010854  -0.004407   0.001138  -0.001534
          580  0.212159631D+04   0.163345  -0.062218   0.027110  -0.010968   0.002819  -0.003768
          581  0.851853314D+03   0.313022  -0.136572   0.060764  -0.024870   0.006438  -0.008719
          582  0.357061668D+03   0.381626  -0.222209   0.103280  -0.042096   0.010793  -0.014335
          583  0.154188376D+03   0.185094  -0.113776   0.056435  -0.024478   0.006543  -0.009313
          584  0.658210557D+02   0.011364   0.428140  -0.286404   0.129152  -0.034315   0.047991
          585  0.299216525D+02   0.002334   0.611083  -0.606633   0.281288  -0.072737   0.096103
          586  0.137645551D+02  -0.001765   0.139294   0.067511  -0.022839   0.002327  -0.000112
          587  0.632318098D+01   0.001077   0.006543   0.894943  -0.761252   0.228798  -0.336974
          588  0.286808667D+01  -0.000620  -0.001507   0.316186  -0.322278   0.081582  -0.086654
          589  0.121046730D+01   0.000300   0.000831  -0.003571   0.976106  -0.364392   0.681486
          590  0.474729190D+00  -0.000130  -0.000477   0.005441   0.444214  -0.371157   0.166685
          591  0.165217160D+00   0.000053   0.000193  -0.001837  -0.011142   0.421699  -1.067480
          592  0.505418800D-01  -0.000023  -0.000089   0.000829   0.012353   0.723292  -0.389261
          593  0.202167500D-01   0.000009   0.000032  -0.000295  -0.003091   0.121848   1.258975

                  Type         
                   p
           No.      Exponent    Contraction Coefficients
          594  0.581160979D+06   0.000035  -0.000016   0.000006  -0.000002   0.000006
          595  0.849507118D+05   0.000158  -0.000070   0.000027  -0.000010   0.000026
          596  0.188156282D+05   0.000676  -0.000301   0.000114  -0.000044   0.000113
          597  0.540518171D+04   0.002801  -0.001250   0.000474  -0.000182   0.000462
          598  0.186673392D+04   0.010947  -0.004927   0.001881  -0.000726   0.001869
          599  0.732162845D+03   0.038371  -0.017518   0.006665  -0.002556   0.006499
          600  0.314126008D+03   0.112250  -0.052985   0.020415  -0.007896   0.020423
          601  0.143665970D+03   0.250791  -0.124026   0.047782  -0.018338   0.046693
          602  0.686311581D+02   0.377479  -0.199286   0.078867  -0.030753   0.080318
          603  0.337373411D+02   0.302653  -0.121097   0.041747  -0.015224   0.035386
          604  0.164568246D+02   0.089933   0.240936  -0.122381   0.049119  -0.141664
          605  0.807731060D+01   0.004153   0.544521  -0.315925   0.130231  -0.338543
          606  0.400079628D+01   0.001293   0.325022  -0.144214   0.054204  -0.139581
          607  0.180382157D+01  -0.000502   0.040459   0.454830  -0.264691   1.246980
          608  0.808086240D+00   0.000197  -0.000829   0.580319  -0.293779  -0.374695
          609  0.328931230D+00  -0.000107   0.000805   0.165139   0.189237  -0.968468
          610  0.131572490D+00   0.000045  -0.000274  -0.002135   0.605091   0.161666
          611  0.526289900D-01  -0.000014   0.000078   0.002432   0.377313   0.631744

                  Type         
                   d
           No.      Exponent    Contraction Coefficients
          612  0.851853314D+03   0.001085  -0.000323   0.000374
          613  0.357061668D+03   0.003980  -0.001167   0.001146
          614  0.154188376D+03   0.022867  -0.006841   0.007774
          615  0.658210557D+02   0.086481  -0.025878   0.026764
          616  0.299216525D+02   0.225653  -0.068936   0.078381
          617  0.137645551D+02   0.386845  -0.113078   0.113145
          618  0.632318098D+01   0.372310  -0.091196   0.124455
          619  0.286808667D+01   0.140762   0.131707  -0.232861
          620  0.121046730D+01   0.011589   0.416983  -0.606611
          621  0.474729190D+00   0.000728   0.452520   0.194294
          622  0.165217160D+00  -0.000016   0.232336   0.625342
          623  0.660868600D-01   0.000082   0.021003   0.171283
          624  0.264347500D-01  -0.000023   0.009222   0.046984


 Basis set:H.ANO-RCC...2S.                                                                 

                  Type         
                   s
           No.      Exponent    Contraction Coefficients
          625  0.188614450D+03   0.000964  -0.001312
          626  0.282765960D+02   0.007492  -0.010345
          627  0.642483000D+01   0.037595  -0.050495
          628  0.181504100D+01   0.143395  -0.207386
          629  0.591063000D+00   0.348636  -0.435088
          630  0.212149000D+00   0.438297  -0.024730
          631  0.798910000D-01   0.165107   0.322526
          632  0.279620000D-01   0.021023   0.707275

  Number of primitives                                 1050
  Number of basis functions                             242

--


++    SO/AO info:
      -----------

                    **************************************************
                    ********** Petite list Basis Functions ***********
                    **************************************************


           Basis functions generated by E  

 Basis Label        Type   Center
    1  O1            1s       1
    2  O1            2s       1
    3  O1            3s       1
    4  O1            2px      1
    5  O1            3px      1
    6  O1            2py      1
    7  O1            3py      1
    8  O1            2pz      1
    9  O1            3pz      1
   10  O2            1s       2
   11  O2            2s       2
   12  O2            3s       2
   13  O2            2px      2
   14  O2            3px      2
   15  O2            2py      2
   16  O2            3py      2
   17  O2            2pz      2
   18  O2            3pz      2
   19  C3            1s       3
   20  C3            2s       3
   21  C3            3s       3
   22  C3            2px      3
   23  C3            3px      3
   24  C3            2py      3
   25  C3            3py      3
   26  C3            2pz      3
   27  C3            3pz      3
   28  H4            1s       4
   29  H4            2s       4
   30  N5            1s       5
   31  N5            2s       5
   32  N5            3s       5
   33  N5            2px      5
   34  N5            3px      5
   35  N5            2py      5
   36  N5            3py      5
   37  N5            2pz      5
   38  N5            3pz      5
   39  C6            1s       6
   40  C6            2s       6
   41  C6            3s       6
   42  C6            2px      6
   43  C6            3px      6
   44  C6            2py      6
   45  C6            3py      6
   46  C6            2pz      6
   47  C6            3pz      6
   48  C7            1s       7
   49  C7            2s       7
   50  C7            3s       7
   51  C7            2px      7
   52  C7            3px      7
   53  C7            2py      7
   54  C7            3py      7
   55  C7            2pz      7
   56  C7            3pz      7
   57  C8            1s       8
   58  C8            2s       8
   59  C8            3s       8
   60  C8            2px      8
   61  C8            3px      8
   62  C8            2py      8
   63  C8            3py      8
   64  C8            2pz      8
   65  C8            3pz      8
   66  P9            1s       9
   67  P9            2s       9
   68  P9            3s       9
   69  P9            4s       9
   70  P9            2px      9
   71  P9            3px      9
   72  P9            4px      9
   73  P9            2py      9
   74  P9            3py      9
   75  P9            4py      9
   76  P9            2pz      9
   77  P9            3pz      9
   78  P9            4pz      9
   79  H10           1s      10
   80  H10           2s      10
   81  C11           1s      11
   82  C11           2s      11
   83  C11           3s      11
   84  C11           2px     11
   85  C11           3px     11
   86  C11           2py     11
   87  C11           3py     11
   88  C11           2pz     11
   89  C11           3pz     11
   90  C12           1s      12
   91  C12           2s      12
   92  C12           3s      12
   93  C12           2px     12
   94  C12           3px     12
   95  C12           2py     12
   96  C12           3py     12
   97  C12           2pz     12
   98  C12           3pz     12
   99  C13           1s      13
  100  C13           2s      13
  101  C13           3s      13
  102  C13           2px     13
  103  C13           3px     13
  104  C13           2py     13
  105  C13           3py     13
  106  C13           2pz     13
  107  C13           3pz     13
  108  N14           1s      14
  109  N14           2s      14
  110  N14           3s      14
  111  N14           2px     14
  112  N14           3px     14
  113  N14           2py     14
  114  N14           3py     14
  115  N14           2pz     14
  116  N14           3pz     14
  117  C15           1s      15
  118  C15           2s      15
  119  C15           3s      15
  120  C15           2px     15
  121  C15           3px     15
  122  C15           2py     15
  123  C15           3py     15
  124  C15           2pz     15
  125  C15           3pz     15
  126  C16           1s      16
  127  C16           2s      16
  128  C16           3s      16
  129  C16           2px     16
  130  C16           3px     16
  131  C16           2py     16
  132  C16           3py     16
  133  C16           2pz     16
  134  C16           3pz     16
  135  C17           1s      17
  136  C17           2s      17
  137  C17           3s      17
  138  C17           2px     17
  139  C17           3px     17
  140  C17           2py     17
  141  C17           3py     17
  142  C17           2pz     17
  143  C17           3pz     17
  144  H18           1s      18
  145  H18           2s      18
  146  H19           1s      19
  147  H19           2s      19
  148  H20           1s      20
  149  H20           2s      20
  150  C21           1s      21
  151  C21           2s      21
  152  C21           3s      21
  153  C21           2px     21
  154  C21           3px     21
  155  C21           2py     21
  156  C21           3py     21
  157  C21           2pz     21
  158  C21           3pz     21
  159  C22           1s      22
  160  C22           2s      22
  161  C22           3s      22
  162  C22           2px     22
  163  C22           3px     22
  164  C22           2py     22
  165  C22           3py     22
  166  C22           2pz     22
  167  C22           3pz     22
  168  H23           1s      23
  169  H23           2s      23
  170  H24           1s      24
  171  H24           2s      24
  172  O25           1s      25
  173  O25           2s      25
  174  O25           3s      25
  175  O25           2px     25
  176  O25           3px     25
  177  O25           2py     25
  178  O25           3py     25
  179  O25           2pz     25
  180  O25           3pz     25
  181  H26           1s      26
  182  H26           2s      26
  183  H27           1s      27
  184  H27           2s      27
  185  H28           1s      28
  186  H28           2s      28
  187  H29           1s      29
  188  H29           2s      29
  189  H30           1s      30
  190  H30           2s      30
  191  H31           1s      31
  192  H31           2s      31
  193  H32           1s      32
  194  H32           2s      32
  195  H33           1s      33
  196  H33           2s      33
  197  H34           1s      34
  198  H34           2s      34
  199  H35           1s      35
  200  H35           2s      35
  201  H36           1s      36
  202  H36           2s      36
  203  H37           1s      37
  204  H37           2s      37
  205  RU38          1s      38
  206  RU38          2s      38
  207  RU38          3s      38
  208  RU38          4s      38
  209  RU38          5s      38
  210  RU38          6s      38
  211  RU38          2px     38
  212  RU38          3px     38
  213  RU38          4px     38
  214  RU38          5px     38
  215  RU38          6px     38
  216  RU38          2py     38
  217  RU38          3py     38
  218  RU38          4py     38
  219  RU38          5py     38
  220  RU38          6py     38
  221  RU38          2pz     38
  222  RU38          3pz     38
  223  RU38          4pz     38
  224  RU38          5pz     38
  225  RU38          6pz     38
  226  RU38          3d2-    38
  227  RU38          4d2-    38
  228  RU38          5d2-    38
  229  RU38          3d1-    38
  230  RU38          4d1-    38
  231  RU38          5d1-    38
  232  RU38          3d0     38
  233  RU38          4d0     38
  234  RU38          5d0     38
  235  RU38          3d1+    38
  236  RU38          4d1+    38
  237  RU38          5d1+    38
  238  RU38          3d2+    38
  239  RU38          4d2+    38
  240  RU38          5d2+    38
  241  H39           1s      39
  242  H39           2s      39

      Basis set specifications :
      Symmetry species        a  
      Basis functions         242
--


            Nuclear Potential Energy           2644.04719085 au

--- Stop Module: gateway at Thu Jul 23 12:57:54 2020 /rc=_RC_ALL_IS_WELL_ ---
*** files: GMe-Cis-CI23-D0-VDZ-SA-CAS1311-Pi-PCM.RICDLib xmldump
    saved to directory /home/ubuntu/newcas/build/calc/200723
--- Module gateway spent 23 seconds ---

--- Start Module: seward at Thu Jul 23 12:57:54 2020 ---

()()()()()()()()()()()()()()()()()()()()()()()()()()()()()()()()()()()()()()()()()()()()()()()()()()

                                              &SEWARD

                                   only a single process is used
                       available to each process: 20 GB of memory, 16 threads
                                             pid: 30095
()()()()()()()()()()()()()()()()()()()()()()()()()()()()()()()()()()()()()()()()()()()()()()()()()()


  Weights used for alignment and distance                     
  mat. size =    39x    1
       15.9949146195700003
       15.9949146195700003
       12.0000000000000000
        1.0078250322300000
       14.0030740044299993
[...]
        C15          H20            1.000  |   N14          C16            1.851
        C17          H18            1.000  |   N14          RU38           0.987
        C21          H23            1.000  |   C16          C21            1.000
        C22          H24            1.000  |   C3           N5             0.974
        O1           H39            0.995  |   N5           C6             0.971
        H4           C6             1.000  |   C8           P9             0.953
        P9           C15            0.967  |
      -------------------------------------------------------------------------------------
      NBO located     83.997 core electrons.
      NBO located     18.970 lone pair electrons.
      NBO located     86.943 electrons involved in   41 bonds.
      NBO analysis, and just that ONLY, did not converge to a
      proper answer, sorry. Calculation will continue as normal.
--

--


  Input file to MOLDEN was generated!


  Input file to MOLDEN was generated!


  Input file to MOLDEN was generated!


  Input file to MOLDEN was generated!


  Input file to MOLDEN was generated!


  Input file to MOLDEN was generated!

      Average orbitals are written to the RASORB file
      Natural orbitals for root   1 are written to the RASORB.1 file
      Natural orbitals for root   2 are written to the RASORB.2 file
      Natural orbitals for root   3 are written to the RASORB.3 file
      Natural orbitals for root   4 are written to the RASORB.4 file
      Natural orbitals for root   5 are written to the RASORB.5 file
      Spin density orbitals for root   1 are written to the SPDORB.1 file
      Spin density orbitals for root   2 are written to the SPDORB.2 file
      Spin density orbitals for root   3 are written to the SPDORB.3 file
      Spin density orbitals for root   4 are written to the SPDORB.4 file
      Spin density orbitals for root   5 are written to the SPDORB.5 file


  Timings
  -------

  - - - - - - - - - - - - - - - - - - - - - - - - - - - - - - - - - -
                                                    time    fraction
  - - - - - - - - - - - - - - - - - - - - - - - - - - - - - - - - - -
  1) Input section                         :        0.55        0.00
     - Input processing                    :        0.55        0.00
     - Create GUGA tables                  :        0.00        0.00
     - Create determinant tables           :        0.00        0.00
  2) Wave function optimization            :     4405.76        0.98
     - transformation section              :      460.75        0.10
       . AO=>MO integral transformation    :        0.00        0.00
       . Fock-matrix generation            :        0.00        0.00
     - CI optimization                     :     3920.37        0.87
       . construct Hdiag                   :        3.10        0.00
       . construct Hsel                    :        7.94        0.00
       . Davidson diagonalization          :     1361.16        0.30
         .. sigma vector generation        :     1107.87        0.25
            |-> aa/bb 1-electron           :        9.30        0.00
            |-> aa/bb 2-electron           :       45.34        0.01
            \-> alpha-beta                 :       76.85        0.02
                |-> C prefetch             :        2.74        0.00
                |-> matrix multiply        :       71.13        0.02
                \-> S scatter              :        1.53        0.00
         .. HCSCE                          :        1.43        0.00
         .. page_in/page_out               :      155.46        0.03
       . density matrix generation         :     4376.99        0.98
            |-> aa/bb 1-electron           :        5.30        0.00
            |-> aa/bb 2-electron           :       28.77        0.01
            \-> alpha-beta                 :       61.16        0.01
     - orbital optimization                :       24.28        0.01
  3) Output section                        :       79.71        0.02
     - Create/update the file RELAX        :       70.16        0.02
     - Create/update the file RUNFILE      :        0.00        0.00
     - Create/update the file JOBIPH       :        9.55        0.00

  - - - - - - - - - - - - - - - - - - - - - - - - - - - - - - - - - -
     Total                                 :     4486.02        0.00
  - - - - - - - - - - - - - - - - - - - - - - - - - - - - - - - - - -

++ I/O STATISTICS
 
  I. General I/O information
  - - - - - - - - - - - - - - - - - - - - - - - - - - - - - - - - - - - - - - - - - - -
  Unit  Name          Flsize      Write/Read            MBytes           Write/Read
                      (MBytes)       Calls              In/Out           Time, sec.
  - - - - - - - - - - - - - - - - - - - - - - - - - - - - - - - - - - - - - - - - - - -
   1  RUNFILE          31.00 .    9989/   89660 .    155.2/    874.8 .       0/       0
   2  ONEINT            0.00 .     118/    9903 .     93.0/    796.9 .       0/       0
   3  TRAINT            0.00 .      60/      57 .     80.4/     76.4 .       0/       0
   4  TEMP01            0.00 .       0/       0 .      0.0/      0.0 .       0/       0
   5  TEMP02            0.00 .     272/    2808 .     31.6/    326.6 .       0/       0
   6  JOBIPH            0.00 .    1767/    1248 .    271.1/    558.9 .       0/       0
   7  CHRED             0.48 .       0/     124 .      0.0/     14.7 .       0/       0
   8  CHVEC1          203.91 .       0/    2220 .      0.0/  12234.8 .       0/       2
   9  CHORST            0.03 .       0/      12 .      0.0/      0.0 .       0/       0
  10  CHOMAP            0.01 .       0/       0 .      0.0/      0.0 .       0/       0
  11  CIDIA            11.63 .     582/     582 .     80.3/     80.3 .       0/       0
  12  LUCVECT           5.82 .   10176/   15936 .   1479.6/   2596.3 .       0/       0
  13  HCFILE            1.16 .    2496/    1882 .    362.9/    362.9 .       0/       0
  14  LUSC1             2.33 .    5396/    7968 .    688.6/   1179.5 .       0/       0
  15  LUSC2             2.33 .    2130/    2860 .    261.7/    383.9 .       0/       0
  16  LUSC3             2.33 .    1650/    1650 .    191.9/    191.9 .       0/       0
  17  LUSC34            1.16 .    7680/    7602 .   1116.7/   1473.8 .       0/       0
  18  LUSC35            0.00 .       0/       0 .      0.0/      0.0 .       0/       0
  19  LUSC36            0.00 .       0/       0 .      0.0/      0.0 .       0/       0
  20  LUSC37            0.00 .       0/       0 .      0.0/      0.0 .       0/       0
  21  LUSC38            0.00 .       0/       0 .      0.0/      0.0 .       0/       0
  22  LUSC39            0.00 .       0/       0 .      0.0/      0.0 .       0/       0
  23  LUSC40            0.00 .       0/       0 .      0.0/      0.0 .       0/       0
  24  LUMOUT            0.00 .       0/       0 .      0.0/      0.0 .       0/       0
  25  CHODIAG           0.22 .       0/      60 .      0.0/     13.5 .       0/       0
  26  .RUNTMP           0.51 .    2478/   19942 .     56.6/    185.9 .       0/       0
  - - - - - - - - - - - - - - - - - - - - - - - - - - - - - - - - - - - - - - - - - - -
   *  TOTAL           262.92 .   44794/  164514 .   4869.9/  21351.3 .       1/       5
  - - - - - - - - - - - - - - - - - - - - - - - - - - - - - - - - - - - - - - - - - - -
 
  II. I/O Access Patterns
  - - - - - - - - - - - - - - - - - - - -
  Unit  Name               % of random
                         Write/Read calls
  - - - - - - - - - - - - - - - - - - - -
   1  RUNFILE             28.6/  10.9
   2  ONEINT             100.0/   6.6
   3  TRAINT              98.3/ 100.0
   4  TEMP01               0.0/   0.0
   5  TEMP02              99.6/ 100.0
   6  JOBIPH              96.8/  99.9
   7  CHRED                0.0/  48.4
   8  CHVEC1               0.0/   2.7
   9  CHORST               0.0/   0.0
  10  CHOMAP               0.0/   0.0
  11  CIDIA               10.1/  10.3
  12  LUCVECT             12.5/  14.0
  13  HCFILE              12.5/  16.6
  14  LUSC1                8.9/  11.3
  15  LUSC2                7.9/   9.6
  16  LUSC3                6.6/   6.7
  17  LUSC34              12.5/  16.7
  18  LUSC35               0.0/   0.0
  19  LUSC36               0.0/   0.0
  20  LUSC37               0.0/   0.0
  21  LUSC38               0.0/   0.0
  22  LUSC39               0.0/   0.0
  23  LUSC40               0.0/   0.0
  24  LUMOUT               0.0/   0.0
  25  CHODIAG              0.0/   0.0
  26  .RUNTMP             28.6/   8.0
  - - - - - - - - - - - - - - - - - - - -
--
 ###############################################################################
 ###############################################################################
 ###                                                                         ###
 ###                                                                         ###
 ###    WARNING: RunFile label BirthCertificate                              ###
 ###    was used       83 times                                              ###
 ###                                                                         ###
 ###                                                                         ###
 ###############################################################################
 ###############################################################################
 ###############################################################################
 ###############################################################################
 ###                                                                         ###
 ###                                                                         ###
 ###    WARNING: RunFile label D1ao                                          ###
 ###    was used       70 times                                              ###
 ###                                                                         ###
 ###                                                                         ###
 ###############################################################################
 ###############################################################################
 ###############################################################################
 ###############################################################################
 ###                                                                         ###
 ###                                                                         ###
 ###    WARNING: RunFile label Unique Coordinat                              ###
 ###    was used       85 times                                              ###
 ###                                                                         ###
 ###                                                                         ###
 ###############################################################################
 ###############################################################################
 ###############################################################################
 ###############################################################################
 ###                                                                         ###
 ###                                                                         ###
 ###    WARNING: RunFile label PotNuc00                                      ###
 ###    was used       59 times                                              ###
 ###                                                                         ###
 ###                                                                         ###
 ###############################################################################
 ###############################################################################
 ###############################################################################
 ###############################################################################
 ###                                                                         ###
 ###                                                                         ###
 ###    WARNING: RunFile label h1_raw                                        ###
 ###    was used       59 times                                              ###
 ###                                                                         ###
 ###                                                                         ###
 ###############################################################################
 ###############################################################################
 ###############################################################################
 ###############################################################################
 ###                                                                         ###
 ###                                                                         ###
 ###    WARNING: RunFile label h1    XX                                      ###
 ###    was used      118 times                                              ###
 ###                                                                         ###
 ###                                                                         ###
 ###############################################################################
 ###############################################################################
 ###############################################################################
 ###############################################################################
 ###                                                                         ###
 ###                                                                         ###
 ###    WARNING: RunFile label PotNucXX                                      ###
 ###    was used       59 times                                              ###
 ###                                                                         ###
 ###                                                                         ###
 ###############################################################################
 ###############################################################################
 ###############################################################################
 ###############################################################################
 ###                                                                         ###
 ###                                                                         ###
 ###    WARNING: RunFile label RF CASSCF Vector                              ###
 ###    was used       55 times                                              ###
 ###                                                                         ###
 ###                                                                         ###
 ###############################################################################
 ###############################################################################
 ###############################################################################
 ###############################################################################
 ###                                                                         ###
 ###                                                                         ###
 ###    WARNING: RunFile label PotNuc                                        ###
 ###    was used       60 times                                              ###
 ###                                                                         ###
 ###                                                                         ###
 ###############################################################################
 ###############################################################################
 ###############################################################################
 ###############################################################################
 ###                                                                         ###
 ###                                                                         ###
 ###    WARNING: RunFile label nBas                                          ###
 ###    was used       44 times                                              ###
 ###                                                                         ###
 ###                                                                         ###
 ###############################################################################
 ###############################################################################
 ###############################################################################
 ###############################################################################
 ###                                                                         ###
 ###                                                                         ###
 ###    WARNING: RunFile label System BitSwitch                              ###
 ###    was used      119 times                                              ###
 ###                                                                         ###
 ###                                                                         ###
 ###############################################################################
 ###############################################################################
 ###############################################################################
 ###############################################################################
 ###                                                                         ###
 ###                                                                         ###
 ###    WARNING: RunFile label Unique atoms                                  ###
 ###    was used       61 times                                              ###
 ###                                                                         ###
 ###                                                                         ###
 ###############################################################################
 ###############################################################################
--- Stop Module: rasscf at Thu Jul 23 15:09:16 2020 /rc=_RC_ALL_IS_WELL_ ---
*** files: GMe-Cis-CI23-D0-VDZ-SA-CAS1311-Pi-PCM.LprOrb GMe-Cis-CI23-D0-VDZ-SA-CAS1311-Pi-PCM.rasscf.molden.1 GMe-Cis-CI23-D0-VDZ-SA-CAS1311-Pi-PCM.rasscf.molden.5
           GMe-Cis-CI23-D0-VDZ-SA-CAS1311-Pi-PCM.rasscf.molden.4 GMe-Cis-CI23-D0-VDZ-SA-CAS1311-Pi-PCM.rasscf.molden.2 GMe-Cis-CI23-D0-VDZ-SA-CAS1311-Pi-PCM.rasscf.molden
           GMe-Cis-CI23-D0-VDZ-SA-CAS1311-Pi-PCM.rasscf.molden.3 GMe-Cis-CI23-D0-VDZ-SA-CAS1311-Pi-PCM.LoProp.molden GMe-Cis-CI23-D0-VDZ-SA-CAS1311-Pi-PCM.RasOrb.2
           GMe-Cis-CI23-D0-VDZ-SA-CAS1311-Pi-PCM.RasOrb.4 GMe-Cis-CI23-D0-VDZ-SA-CAS1311-Pi-PCM.RasOrb GMe-Cis-CI23-D0-VDZ-SA-CAS1311-Pi-PCM.RasOrb.3
           GMe-Cis-CI23-D0-VDZ-SA-CAS1311-Pi-PCM.RasOrb.1 GMe-Cis-CI23-D0-VDZ-SA-CAS1311-Pi-PCM.RasOrb.5 GMe-Cis-CI23-D0-VDZ-SA-CAS1311-Pi-PCM.rasscf.h5
           GMe-Cis-CI23-D0-VDZ-SA-CAS1311-Pi-PCM.SpdOrb.2 GMe-Cis-CI23-D0-VDZ-SA-CAS1311-Pi-PCM.SpdOrb.3 GMe-Cis-CI23-D0-VDZ-SA-CAS1311-Pi-PCM.SpdOrb.4
           GMe-Cis-CI23-D0-VDZ-SA-CAS1311-Pi-PCM.SpdOrb.1 GMe-Cis-CI23-D0-VDZ-SA-CAS1311-Pi-PCM.SpdOrb.5 xmldump
    saved to directory /home/ubuntu/newcas/build/calc/200723
--- Module rasscf spent 1 hour 14 minutes 46 seconds ---

.##################.
.# Happy landing! #.
.##################.

    Timing: Wall=7905.18 User=12066.47 System=105.45
*****************************************************************************************
*** WorkDir at /tmp/molcas_calculations/GMe-Cis-CI23-D0-VDZ-SA-CAS1311-Pi-PCM cleaned ***
*****************************************************************************************
