*********************************************************************************************************
*** WorkDir at /tmp/molcas_calculations/GMe-Cis-CI23-D0-VDZ-SA-CAS1311-Pi-CI23-Opt-Thres-6D-4 cleaned ***
*********************************************************************************************************
   This run of MOLCAS is using the pymolcas driver

                             OPE
                             OPE          NMOL  CASOP  ENMOLC A   SO
                 OPE        NMOLC        AS  OP EN  MO LC     AS  OP
                OPENM       OL CA        SO  PE NM  OL CA     SOP EN
                OP EN      MO   LC       AS  OP ENMOL  CASO   PENMOL
                OP  EN     MO   LC       AS  OP EN     MO     LC ASO
               OP   E  NMOL  C  AS       OP  EN MO     LC     AS  OP
               OP  E   NMO   LC AS        OPEN  MO     LCASOP EN   M
               O  PEN   MO  LCA  SO
            OPE   NMO   L   CAS    OP
        OPENMOL  CASOP     ENMOL   CASOPE
     OPENMOLCA   SOPENMOLCASOPEN   MOLCASOPE
    OPENMOLCAS   OP           EN   MOL    CAS
    OPENMOLCAS       OP  ENM        O     LCA
    OPENMOLCAS    OPEN  MOLCASO     P  E  NMO
    OPENMOLCAS     OP               E  N  MOL
    OPENMOLCA   SO           PENM   O  L  CAS    OPEN    MO    LCAS
    OPENMOLCA   SOP           ENM   O  L  CAS   OP  EN  MOLC  AS   O
    OPENMOLCA   SOPE           NM      O  LCA   S      OP  EN MO
    OPENMOLC                AS         O  PEN   M      OL  CA  SOPE
    OPENMO        LCASOPE  NMOL        C  ASO   P      ENMOLC     AS
    OPE     NMO      LCA  SO     P     E   NM   OL  CA SO  PE N   MO
          OPENMOLCA            SOPE   NMO        LCAS  O    P  ENMO
     OPENMOLCASOPENMOLCASOPENMOLCASOPENMOLCA
        OPENMOLCASOPENMOLCASOPENMOLCASOPE
            OPENMOLCASOPENMOLCASOPENM
               OPENMOLCASOPENMOLCA        version: 19.11
                   OPENMOLCASO
                       OPE                tag: 1008-ga5e89a9f

 OpenMolcas is free software; you can redistribute it and/or modify it
 under the terms of the GNU Lesser General Public License version 2.1.
 OpenMolcas is distributed in the hope that it will be useful, but it
 is provided "as is" and without any express or implied warranties.
 For more details see the full text of the license in the file
 LICENSE or in <http://www.gnu.org/licenses/>.

                 Copyright (C) The OpenMolcas Authors
           For the author list and the recommended citation,
                   consult the file CONTRIBUTORS.md

           *************************************************
           * pymolcas version py2.08                       *
           *   build bed633bbe89b7744c23cdbfc3f64969c      *
           *   (after the EMIL interpreter by V. Veryazov) *
           *************************************************

configuration info
------------------
C Compiler ID: GNU
C flags: -std=gnu99 -fopenmp
Fortran Compiler ID: GNU
Fortran flags: -fno-aggressive-loop-optimizations -cpp -fdefault-integer-8 -fopenmp
Definitions: _MOLCAS_;_I8_;_LINUX_;_OPENBLAS_;_FDE_
Parallel: OFF (GA=OFF)


   -----------------------------------------------------------------------------------------------------
  |
  |              Project: GMe-Cis-CI23-D0-VDZ-SA-CAS1311-Pi-CI23-Opt-Thres-6D-4
  |       Submitted from: /home/ubuntu/newcas/build/calc/200715
  |         Scratch area: /tmp/molcas_calculations/GMe-Cis-CI23-D0-VDZ-SA-CAS1311-Pi-CI23-Opt-Thres-6D-4
  |      Save outputs to: /home/ubuntu/newcas/build/calc/200715
  |               Molcas: /home/ubuntu/newcas/build
  |
  | Scratch area is empty
  |
  |       MOLCAS_DRIVER = /usr/local/sbin/pymolcas
  |          MOLCAS_FIM = 1
  | MOLCAS_KEEP_WORKDIR = NO
  |       MOLCAS_LINALG = /home/ubuntu/newcas/OpenBLAS_install/openblas-lapack-ilp64
  |      MOLCAS_MAXITER = 200
  |       MOLCAS_MAXMEM = 30000
  |  MOLCAS_NEW_WORKDIR = YES
  |       MOLCAS_NPROCS = 1
  |        MOLCAS_PRINT = VERBOSE
  |       MOLCAS_SOURCE = /home/ubuntu/newcas/OpenMolcas
  |    MOLCAS_STRUCTURE = 0
  |
   -----------------------------------------------------------------------------------------------------

++ ---------   Input file   ---------

&GATEWAY
        Title = GMe-Cis-CI23-D0-VDZ-SA-CAS1311-Pi-CI23-Opt-Thres-6D-4
        coord = GMe-Cis-OOScan5-D0-VDZ-SA-CAS1311-Pi-CI23-GMe-Guess-Opt.Opt.xyz
        basis = ANO-RCC-VDZ
        group = c1
        RICD
        Constraints
                a = Ediff 2 3
        Values
                a = 0.0
        End of Constraints

>>> DO WHILE

  &SEWARD
          DoAnalytical

  &RASSCF
          Fileorb = GMe-Cis-OOScan5-D0-VDZ-SA-CAS1311-Pi-CI23-GMe-Guess-Opt.RasOrb
          Spin = 2
          Charge = 0
          Nactel = 13 0 0
          Ras2 = 11
          CiRoot = 5 5 1

  &SLAPAF
          THRS = 2.0D-5 6.0D-4

>>> END DO

-- ----------------------------------

--- Start Module: gateway at Wed Jul 15 17:57:47 2020 ---

()()()()()()()()()()()()()()()()()()()()()()()()()()()()()()()()()()()()()()()()()()()()()()()()()()

                                              &GATEWAY

                                   only a single process is used
                       available to each process: 20 GB of memory, 16 threads
                                             pid: 10424
()()()()()()()()()()()()()()()()()()()()()()()()()()()()()()()()()()()()()()()()()()()()()()()()()()



 Basis Set     1 Label: O.ANO-RCC-VDZ
 Basis set is read from library:basis_library 
 Basis Set Reference(s):
     B. O. Roos, R. Lindh, P.-A. Malmqvist, V. Veryazov, and P.-O. Widmark,          
     J. Phys. Chem. A 108, 2851 (2004)                                               




 Basis Set     2 Label: C.ANO-RCC-VDZ
 Basis set is read from library:basis_library 
 Basis Set Reference(s):
     B. O. Roos, R. Lindh, P.-A. Malmqvist, V. Veryazov, and P.-O. Widmark,          
     J. Phys. Chem. A 108, 2851 (2004)                                               




 Basis Set     3 Label: H.ANO-RCC-VDZ
 Basis set is read from library:basis_library 
 Basis Set Reference(s):
     P.-O. Widmark, P.-A. Malmqvist, and B. O. Roos                                  
     Theor. Chim. Acta 77, 291 (1990)                                                




 Basis Set     4 Label: N.ANO-RCC-VDZ
 Basis set is read from library:basis_library 
 Basis Set Reference(s):
     B. O. Roos, R. Lindh, P.-A. Malmqvist, V. Veryazov, and P.-O. Widmark,          
     J. Phys. Chem. A 108, 2851 (2004)                                               




 Basis Set     5 Label: C.ANO-RCC-VDZ
 Basis set is read from library:basis_library 
 Basis Set Reference(s):
     B. O. Roos, R. Lindh, P.-A. Malmqvist, V. Veryazov, and P.-O. Widmark,          
     J. Phys. Chem. A 108, 2851 (2004)                                               




 Basis Set     6 Label: P.ANO-RCC-VDZ
 Basis set is read from library:basis_library 
 Basis Set Reference(s):
     B. O. Roos, R. Lindh, P.-A. Malmqvist, V. Veryazov, and P.-O. Widmark,          
     J. Phys. Chem. A 108, 2851 (2004)                                               




 Basis Set     7 Label: H.ANO-RCC-VDZ
 Basis set is read from library:basis_library 
 Basis Set Reference(s):
     P.-O. Widmark, P.-A. Malmqvist, and B. O. Roos                                  
     Theor. Chim. Acta 77, 291 (1990)                                                




 Basis Set     8 Label: C.ANO-RCC-VDZ
 Basis set is read from library:basis_library 
 Basis Set Reference(s):
     B. O. Roos, R. Lindh, P.-A. Malmqvist, V. Veryazov, and P.-O. Widmark,          
     J. Phys. Chem. A 108, 2851 (2004)                                               




 Basis Set     9 Label: N.ANO-RCC-VDZ
 Basis set is read from library:basis_library 
 Basis Set Reference(s):
     B. O. Roos, R. Lindh, P.-A. Malmqvist, V. Veryazov, and P.-O. Widmark,          
     J. Phys. Chem. A 108, 2851 (2004)                                               




 Basis Set    10 Label: C.ANO-RCC-VDZ
 Basis set is read from library:basis_library 
 Basis Set Reference(s):
     B. O. Roos, R. Lindh, P.-A. Malmqvist, V. Veryazov, and P.-O. Widmark,          
     J. Phys. Chem. A 108, 2851 (2004)                                               




 Basis Set    11 Label: H.ANO-RCC-VDZ
 Basis set is read from library:basis_library 
 Basis Set Reference(s):
     P.-O. Widmark, P.-A. Malmqvist, and B. O. Roos                                  
     Theor. Chim. Acta 77, 291 (1990)                                                




 Basis Set    12 Label: C.ANO-RCC-VDZ
 Basis set is read from library:basis_library 
 Basis Set Reference(s):
     B. O. Roos, R. Lindh, P.-A. Malmqvist, V. Veryazov, and P.-O. Widmark,          
     J. Phys. Chem. A 108, 2851 (2004)                                               




 Basis Set    13 Label: H.ANO-RCC-VDZ
 Basis set is read from library:basis_library 
 Basis Set Reference(s):
     P.-O. Widmark, P.-A. Malmqvist, and B. O. Roos                                  
     Theor. Chim. Acta 77, 291 (1990)                                                




 Basis Set    14 Label: O.ANO-RCC-VDZ
 Basis set is read from library:basis_library 
 Basis Set Reference(s):
     B. O. Roos, R. Lindh, P.-A. Malmqvist, V. Veryazov, and P.-O. Widmark,          
     J. Phys. Chem. A 108, 2851 (2004)                                               




 Basis Set    15 Label: H.ANO-RCC-VDZ
 Basis set is read from library:basis_library 
 Basis Set Reference(s):
     P.-O. Widmark, P.-A. Malmqvist, and B. O. Roos                                  
     Theor. Chim. Acta 77, 291 (1990)                                                




 Basis Set    16 Label: RU.ANO-RCC-VDZ
 Basis set is read from library:basis_library 
 Basis Set Reference(s):
     B. O. Roos, R. Lindh and P.-A. Malmqvist, V. Veryazov and P.-O. Widmark         
     J. Phys. Chem. A, 109. 6575-6579 (2005).                                        




 Basis Set    17 Label: H.ANO-RCC-VDZ
 Basis set is read from library:basis_library 
 Basis Set Reference(s):
     P.-O. Widmark, P.-A. Malmqvist, and B. O. Roos                                  
     Theor. Chim. Acta 77, 291 (1990)                                                




 Basis Set    19 Label: O.ANO-RCC-VDZ....acCD-aux-basis.
 On-the-fly basis set generation


 Basis Set    20 Label: C.ANO-RCC-VDZ....acCD-aux-basis.
 On-the-fly basis set generation


 Basis Set    21 Label: H.ANO-RCC-VDZ....acCD-aux-basis.
 On-the-fly basis set generation


 Basis Set    22 Label: N.ANO-RCC-VDZ....acCD-aux-basis.
 On-the-fly basis set generation


 Basis Set    23 Label: C.ANO-RCC-VDZ....acCD-aux-basis.
 On-the-fly basis set generation


 Basis Set    24 Label: P.ANO-RCC-VDZ....acCD-aux-basis.
 On-the-fly basis set generation


 Basis Set    25 Label: H.ANO-RCC-VDZ....acCD-aux-basis.
 On-the-fly basis set generation


 Basis Set    26 Label: C.ANO-RCC-VDZ....acCD-aux-basis.
 On-the-fly basis set generation


 Basis Set    27 Label: N.ANO-RCC-VDZ....acCD-aux-basis.
 On-the-fly basis set generation


 Basis Set    28 Label: C.ANO-RCC-VDZ....acCD-aux-basis.
 On-the-fly basis set generation


 Basis Set    29 Label: H.ANO-RCC-VDZ....acCD-aux-basis.
 On-the-fly basis set generation


 Basis Set    30 Label: C.ANO-RCC-VDZ....acCD-aux-basis.
 On-the-fly basis set generation


 Basis Set    31 Label: H.ANO-RCC-VDZ....acCD-aux-basis.
 On-the-fly basis set generation


 Basis Set    32 Label: O.ANO-RCC-VDZ....acCD-aux-basis.
 On-the-fly basis set generation


 Basis Set    33 Label: H.ANO-RCC-VDZ....acCD-aux-basis.
 On-the-fly basis set generation


 Basis Set    34 Label: RU.ANO-RCC-VDZ....acCD-aux-basis.
 On-the-fly basis set generation


 Basis Set    35 Label: RU.ANO-RCC-VDZ....acCD-aux-basis.
 On-the-fly basis set generation


 Basis Set    36 Label: H.ANO-RCC-VDZ....acCD-aux-basis.
 On-the-fly basis set generation

               ****************************************************************************************
               *                                                                                      *
               *                GMe-Cis-CI23-D0-VDZ-SA-CAS1311-Pi-CI23-Opt-Thres-6D-4                 *
               *                                                                                      *
               ****************************************************************************************

  Weights used for alignment and distance                     
  mat. size =    39x    1
       15.9949146195700003
       15.9949146195700003
       12.0000000000000000
        1.0078250322300000
       14.0030740044299993
       12.0000000000000000
       12.0000000000000000
       12.0000000000000000
       30.9737619984199988
        1.0078250322300000
       12.0000000000000000
       12.0000000000000000
       12.0000000000000000
       14.0030740044299993
       12.0000000000000000
       12.0000000000000000
       12.0000000000000000
        1.0078250322300000
        1.0078250322300000
        1.0078250322300000
       12.0000000000000000
       12.0000000000000000
        1.0078250322300000
        1.0078250322300000
       15.9949146195700003
        1.0078250322300000
        1.0078250322300000
        1.0078250322300000
        1.0078250322300000
        1.0078250322300000
        1.0078250322300000
        1.0078250322300000
        1.0078250322300000
        1.0078250322300000
        1.0078250322300000
        1.0078250322300000
        1.0078250322300000
      101.9043441000000030
        1.0078250322300000


++    Symmetry information:
      ---------------------

                    Character Table for C1 

                             E  
                    a        1  x, y, xy, Rz, z, xz, Ry, yz, Rx, I
--


++    Basis set information:
      ----------------------


      Basis set label: O.ANO-RCC...3S2P.

      Electronic valence basis set:
      ------------------
      Associated Effective Charge   8.000000 au
      Associated Actual Charge      8.000000 au
      Nuclear Model: Point charge

      Shell  nPrim  nBasis  Cartesian Spherical Contaminant
         s      14       3        X                  
         p       9       2        X                  

       Label   Cartesian Coordinates / Bohr

 O1                -0.8268112288       -5.4623785009       -2.3069517448
 O2                 0.0196300970       -2.1914787449       -4.0833047521


      Basis set label: C.ANO-RCC...3S2P.

      Electronic valence basis set:
      ------------------
      Associated Effective Charge   6.000000 au
      Associated Actual Charge      6.000000 au
      Nuclear Model: Point charge

      Shell  nPrim  nBasis  Cartesian Spherical Contaminant
         s      14       3        X                  
         p       9       2        X                  

       Label   Cartesian Coordinates / Bohr

 C3                 4.8144593673       -4.6065963533       -1.3401566912


      Basis set label: H.ANO-RCC...2S.

      Electronic valence basis set:
      ------------------
      Associated Effective Charge   1.000000 au
      Associated Actual Charge      1.000000 au
      Nuclear Model: Point charge

      Shell  nPrim  nBasis  Cartesian Spherical Contaminant
         s       8       2        X                  

       Label   Cartesian Coordinates / Bohr

 H4                 4.6227373545       -0.2690333731       -3.2195060273


      Basis set label: N.ANO-RCC...3S2P.

      Electronic valence basis set:
      ------------------
      Associated Effective Charge   7.000000 au
      Associated Actual Charge      7.000000 au
      Nuclear Model: Point charge

      Shell  nPrim  nBasis  Cartesian Spherical Contaminant
         s      14       3        X                  
         p       9       2        X                  

       Label   Cartesian Coordinates / Bohr

 N5                 4.0152421650       -2.3268828752        0.0808484929


      Basis set label: C.ANO-RCC...3S2P.

      Electronic valence basis set:
      ------------------
      Associated Effective Charge   6.000000 au
      Associated Actual Charge      6.000000 au
      Nuclear Model: Point charge

      Shell  nPrim  nBasis  Cartesian Spherical Contaminant
         s      14       3        X                  
         p       9       2        X                  

       Label   Cartesian Coordinates / Bohr

 C6                 4.9522898681       -0.0168013471       -1.2107005306
 C7                -5.4335256333        1.6622306136       -3.5089407513
 C8                -7.3283704591       -0.0512476151        1.4289658822


      Basis set label: P.ANO-RCC...4S3P.

      Electronic valence basis set:
      ------------------
      Associated Effective Charge  15.000000 au
      Associated Actual Charge     15.000000 au
      Nuclear Model: Point charge

      Shell  nPrim  nBasis  Cartesian Spherical Contaminant
         s      17       4        X                  
         p      12       3        X                  

       Label   Cartesian Coordinates / Bohr

 P9                -4.3351828513        0.5633449133       -0.3364780575


      Basis set label: H.ANO-RCC...2S.

      Electronic valence basis set:
      ------------------
      Associated Effective Charge   1.000000 au
      Associated Actual Charge      1.000000 au
      Nuclear Model: Point charge

      Shell  nPrim  nBasis  Cartesian Spherical Contaminant
         s       8       2        X                  

       Label   Cartesian Coordinates / Bohr

 H10                6.9737179984        0.2117544892       -0.8986050801


      Basis set label: C.ANO-RCC...3S2P.

      Electronic valence basis set:
      ------------------
      Associated Effective Charge   6.000000 au
      Associated Actual Charge      6.000000 au
      Nuclear Model: Point charge

      Shell  nPrim  nBasis  Cartesian Spherical Contaminant
         s      14       3        X                  
         p       9       2        X                  

       Label   Cartesian Coordinates / Bohr

 C11                4.9785563621       -2.4484309666        2.7064256746
 C12               -0.8039407617       -2.1115766457        3.8468871260
 C13                3.5627233206        2.3463553880       -0.3938252739


      Basis set label: N.ANO-RCC...3S2P.

      Electronic valence basis set:
      ------------------
      Associated Effective Charge   7.000000 au
      Associated Actual Charge      7.000000 au
      Nuclear Model: Point charge

      Shell  nPrim  nBasis  Cartesian Spherical Contaminant
         s      14       3        X                  
         p       9       2        X                  

       Label   Cartesian Coordinates / Bohr

 N14                1.0939874357        2.0762358003        0.1013042491


      Basis set label: C.ANO-RCC...3S2P.

      Electronic valence basis set:
      ------------------
      Associated Effective Charge   6.000000 au
      Associated Actual Charge      6.000000 au
      Nuclear Model: Point charge

      Shell  nPrim  nBasis  Cartesian Spherical Contaminant
         s      14       3        X                  
         p       9       2        X                  

       Label   Cartesian Coordinates / Bohr

 C15               -3.1456715741        3.5526486615        1.2414281765
 C16               -0.3983160190        4.0710887310        0.6577062708
 C17                4.6819033945        4.7266375582       -0.3050680314


      Basis set label: H.ANO-RCC...2S.

      Electronic valence basis set:
      ------------------
      Associated Effective Charge   1.000000 au
      Associated Actual Charge      1.000000 au
      Nuclear Model: Point charge

      Shell  nPrim  nBasis  Cartesian Spherical Contaminant
         s       8       2        X                  

       Label   Cartesian Coordinates / Bohr

 H18                6.6673427867        4.9275493847       -0.6859548985
 H19               -3.3333054857        3.2285627476        3.2648069199
 H20               -4.3003880234        5.1730899850        0.7440451174


      Basis set label: C.ANO-RCC...3S2P.

      Electronic valence basis set:
      ------------------
      Associated Effective Charge   6.000000 au
      Associated Actual Charge      6.000000 au
      Nuclear Model: Point charge

      Shell  nPrim  nBasis  Cartesian Spherical Contaminant
         s      14       3        X                  
         p       9       2        X                  

       Label   Cartesian Coordinates / Bohr

 C21                0.6398507211        6.4815906833        0.7332327848
 C22                3.2129750204        6.7954296140        0.2587202116


      Basis set label: H.ANO-RCC...2S.

      Electronic valence basis set:
      ------------------
      Associated Effective Charge   1.000000 au
      Associated Actual Charge      1.000000 au
      Nuclear Model: Point charge

      Shell  nPrim  nBasis  Cartesian Spherical Contaminant
         s       8       2        X                  

       Label   Cartesian Coordinates / Bohr

 H23               -0.5350715680        8.0779166070        1.1755456531
 H24                4.0404419842        8.6525056553        0.3337736704


      Basis set label: O.ANO-RCC...3S2P.

      Electronic valence basis set:
      ------------------
      Associated Effective Charge   8.000000 au
      Associated Actual Charge      8.000000 au
      Nuclear Model: Point charge

      Shell  nPrim  nBasis  Cartesian Spherical Contaminant
         s      14       3        X                  
         p       9       2        X                  

       Label   Cartesian Coordinates / Bohr

 O25               -1.4537077829       -3.1325403586        5.7889795269


      Basis set label: H.ANO-RCC...2S.

      Electronic valence basis set:
      ------------------
      Associated Effective Charge   1.000000 au
      Associated Actual Charge      1.000000 au
      Nuclear Model: Point charge

      Shell  nPrim  nBasis  Cartesian Spherical Contaminant
         s       8       2        X                  

       Label   Cartesian Coordinates / Bohr

 H26               -6.8266397637        3.1623392987       -3.3490615875
 H27               -6.2514973469        0.0788821195       -4.5234265019
 H28               -3.8217514820        2.3221205008       -4.5894247144
 H29               -6.8730285150       -0.6291832927        3.3427205170
 H30               -8.3511146341       -1.5809190244        0.5214309957
 H31               -8.5274192407        1.6152087852        1.4796397575
 H32                4.1156013999       -6.2641849492       -0.3680752799
 H33                6.8737442676       -4.7011901472       -1.4516168765
 H34                4.0005527381       -4.5557913121       -3.2113409364
 H35                4.3804302835       -0.7963372785        3.7523096027
 H36                7.0394618348       -2.5574549359        2.7102268776
 H37                4.2106225931       -4.0998503437        3.6336474254


      Basis set label: RU.ANO-RCC...6S5P3D.

      Electronic valence basis set:
      ------------------
      Associated Effective Charge  44.000000 au
      Associated Actual Charge     44.000000 au
      Nuclear Model: Point charge

      Shell  nPrim  nBasis  Cartesian Spherical Contaminant
         s      21       6        X                  
         p      18       5        X                  
         d      13       3                 X         

       Label   Cartesian Coordinates / Bohr

 RU38              -0.2215618654       -1.7192246969       -0.0761581360


      Basis set label: H.ANO-RCC...2S.

      Electronic valence basis set:
      ------------------
      Associated Effective Charge   1.000000 au
      Associated Actual Charge      1.000000 au
      Nuclear Model: Point charge

      Shell  nPrim  nBasis  Cartesian Spherical Contaminant
         s       8       2        X                  

       Label   Cartesian Coordinates / Bohr

 H39               -2.3336243220       -5.4563406370       -3.3730184014
--


++    Molecular structure info:
      -------------------------

                    ************************************************ 
                    **** Cartesian Coordinates / Bohr, Angstrom **** 
                    ************************************************ 

     Center  Label                x              y              z                     x              y              z
        1      O1              -0.826811      -5.462379      -2.306952             -0.437530      -2.890566      -1.220786
        2      O2               0.019630      -2.191479      -4.083305              0.010388      -1.159681      -2.160792
        3      C3               4.814459      -4.606596      -1.340157              2.547702      -2.437706      -0.709180
        4      H4               4.622737      -0.269033      -3.219506              2.446247      -0.142366      -1.703689
        5      N5               4.015242      -2.326883       0.080848              2.124775      -1.231333       0.042783
        6      C6               4.952290      -0.016801      -1.210701              2.620639      -0.008891      -0.640675
        7      C7              -5.433526       1.662231      -3.508941             -2.875298       0.879615      -1.856851
        8      C8              -7.328370      -0.051248       1.428966             -3.878007      -0.027119       0.756176
        9      P9              -4.335183       0.563345      -0.336478             -2.294080       0.298109      -0.178057
       10      H10              6.973718       0.211754      -0.898605              3.690333       0.112056      -0.475521
       11      C11              4.978556      -2.448431       2.706426              2.634539      -1.295654       1.432179
       12      C12             -0.803941      -2.111577       3.846887             -0.425427      -1.117398       2.035685
       13      C13              3.562723       2.346355      -0.393825              1.885312       1.241638      -0.208403
       14      N14              1.093987       2.076236       0.101304              0.578913       1.098697       0.053608
       15      C15             -3.145672       3.552649       1.241428             -1.664618       1.879981       0.656936
       16      C16             -0.398316       4.071089       0.657706             -0.210780       2.154327       0.348043
       17      C17              4.681903       4.726638      -0.305068              2.477557       2.501229      -0.161435
       18      H18              6.667343       4.927549      -0.685955              3.528206       2.607547      -0.362992
       19      H19             -3.333305       3.228563       3.264807             -1.763909       1.708482       1.727661
       20      H20             -4.300388       5.173090       0.744045             -2.275667       2.737481       0.393732
       21      C21              0.639851       6.481591       0.733233              0.338594       3.429910       0.388010
       22      C22              3.212975       6.795430       0.258720              1.700233       3.595986       0.136909
       23      H23             -0.535072       8.077917       1.175546             -0.283148       4.274649       0.622072
       24      H24              4.040442       8.652506       0.333774              2.138110       4.578709       0.176625
       25      O25             -1.453708      -3.132540       5.788980             -0.769269      -1.657669       3.063396
       26      H26             -6.826640       3.162339      -3.349062             -3.612502       1.673438      -1.772247
       27      H27             -6.251497       0.078882      -4.523427             -3.308150       0.041743      -2.393694
       28      H28             -3.821751       2.322121      -4.589425             -2.022384       1.228813      -2.428619
       29      H29             -6.873029      -0.629183       3.342721             -3.637050      -0.332949       1.768892
       30      H30             -8.351115      -1.580919       0.521431             -4.419220      -0.836586       0.275929
       31      H31             -8.527419       1.615209       1.479640             -4.512516       0.854732       0.782992
       32      H32              4.115601      -6.264185      -0.368075              2.177882      -3.314864      -0.194777
       33      H33              6.873744      -4.701190      -1.451617              3.637429      -2.487763      -0.768163
       34      H34              4.000553      -4.555791      -3.211341              2.117001      -2.410821      -1.699368
       35      H35              4.380430      -0.796337       3.752310              2.318024      -0.421404       1.985637
       36      H36              7.039462      -2.557455       2.710227              3.725123      -1.353347       1.434190
       37      H37              4.210623      -4.099850       3.633647              2.228166      -2.169547       1.922843
       38      RU38            -0.221562      -1.719225      -0.076158             -0.117245      -0.909775      -0.040301
       39      H39             -2.333624      -5.456341      -3.373018             -1.234901      -2.887371      -1.784924

                    ************************************************* 
                    **** InterNuclear Distances / Bohr, Angstrom **** 
                    ************************************************* 

     Atom centers         Bohr        Angstrom
   39 H39       1 O1      1.845812        0.976761
   23 H23      21 C21     2.030847        1.074678
   18 H18      17 C17     2.031603        1.075078
   24 H24      22 C22     2.034469        1.076595
   34 H34       3 C3      2.041165        1.080138
   37 H37      11 C11     2.043685        1.081472
   32 H32       3 C3      2.044736        1.082028
   35 H35      11 C11   
   28 H28       7 C7      2.049565        1.084583
   29 H29       8 C8      2.050318        1.084981
   27 H27       7 C7      2.050671        1.085168
   20 H20      15 C15     2.050997        1.085341
    6 C6        4 H4      2.051225        1.085462
   30 H30       8 C8      2.051711        1.085719
   26 H26       7 C7      2.053449        1.086639
   31 H31       8 C8      2.053622        1.086730
   19 H19      15 C15     2.057741        1.088910
   10 H10       6 C6      2.058109        1.089104
   36 H36      11 C11     2.063791        1.092111
   33 H33       3 C3      2.064467        1.092469
   25 O25      12 C12     2.288293        1.210913
   14 N14      13 C13     2.532346        1.340060
   16 C16      14 N14     2.552644        1.350801
   22 C22      17 C17     2.599136        1.375404
   21 C21      16 C16     2.625645        1.389432
   17 C17      13 C13     2.631765        1.392670
   22 C22      21 C21     2.635266        1.394523
   11 C11       5 N5      2.799358        1.481356
    5 N5        3 C3      2.802695        1.483122
    6 C6        5 N5      2.807603        1.485719
   16 C16      15 C15     2.856129        1.511398
   13 C13       6 C6      2.860540        1.513733
   28 H28      27 H27     3.307588        1.750300
   37 H37      35 H35     3.310002        1.751578
   34 H34      32 H32     3.319037        1.756359
   30 H30      29 H29     3.324186        1.759084
   20 H20      19 H19     3.327262        1.760711
   10 H10       4 H4      3.338390        1.766600
   31 H31      30 H30     3.341329        1.768155
   27 H27      26 H26     3.349273        1.772359
   33 H33      32 H32     3.350279        1.772891
   37 H37      36 H36     3.351719        1.773653
   31 H31      29 H29     3.353412        1.774549
   36 H36      35 H35     3.355282        1.775539
   28 H28      26 H26     3.357651        1.776793
   34 H34      33 H33     3.372388        1.784591
    9 P9        8 C8      3.528978        1.867455
    9 P9        7 C7      3.532482        1.869309
   15 C15       9 P9      3.583387        1.896247
    2 O2        1 O1      3.817156        2.019952
    5 N5        4 H4      3.936513        2.083113
   32 H32       5 N5      3.964083        2.097702
   37 H37       5 N5      3.975420        2.103702
   34 H34       5 N5      3.975772        2.103888
   38 RU38     12 C12     3.985397        2.108981
   13 C13       4 H4      3.993540        2.113290
   35 H35       5 N5      3.994441        2.113767
   36 H36       5 N5      4.014063        2.124150
   19 H19      16 C16     4.015095        2.124697
   10 H10       5 N5      4.019526        2.127041
   33 H33       5 N5      4.019555        2.127057
   38 RU38     14 N14     4.020906        2.127772
   24 H24      17 C17     4.028900        2.132002
   22 C22      18 H18     4.039065        2.137381
   38 RU38      2 O2      4.042081        2.138977
   23 H23      16 C16     4.042466        2.139181
   18 H18      13 C13     4.048032        2.142126
   24 H24      21 C21     4.054190        2.145385
   13 C13      10 H10     4.055393        2.146021
   20 H20      16 C16     4.055617        2.146140
   23 H23      22 C22     4.066103        2.151689
   39 H39       2 O2      4.086764        2.162622
   38 RU38      5 N5      4.283037        2.266486
   34 H34       4 H4      4.331683        2.292228
   38 RU38      1 O1      4.399314        2.328017
   16 C16      13 C13     4.446376        2.352921
   21 C21      14 N14     4.473558        2.367305
   17 C17      14 N14     4.479164        2.370271
   22 C22      13 C13     4.510255        2.386724
   21 C21      17 C17     4.527264        2.395725
   22 C22      16 C16     4.541216        2.403108
   36 H36      10 H10     4.549342        2.407408
   37 H37      32 H32     4.550512        2.408027
   14 N14       6 C6      4.581338        2.424340
   11 C11       3 C3      4.589056        2.428424
   19 H19       9 P9      4.590904        2.429402
    6 C6        3 C3      4.593689        2.430875
   11 C11       6 C6      4.610574        2.439811
   29 H29       9 P9      4.625936        2.447940
   27 H27       9 P9      4.630065        2.450125
   28 H28       9 P9      4.630816        2.450522
   15 C15      14 N14     4.631888        2.451090
   30 H30       9 P9      4.632665        2.451501
   24 H24      18 H18     4.670734        2.471646
   36 H36      33 H33     4.684443        2.478900
   24 H24      23 H23     4.687649        2.480597
   31 H31       9 P9      4.688235        2.480907
   26 H26       9 P9      4.694442        2.484192
   34 H34       2 O2      4.711480        2.493208
   38 RU38      9 P9      4.711663        2.493305
   13 C13       5 N5      4.719030        2.497203
   18 H18      10 H10     4.730519        2.503283
    4 H4        3 C3      4.731085        2.503582
   20 H20       9 P9      4.734817        2.505557
   23 H23      20 H20     4.775125        2.526887
   21 C21      15 C15     4.813226        2.547049
   17 C17       6 C6      4.836682        2.559462
   11 C11      10 H10     4.904437        2.595316
   33 H33      10 H10     4.944981        2.616772
   32 H32      11 C11     4.975663        2.633008
   34 H34       1 O1      4.994323        2.642882
   37 H37       3 C3      5.035885        2.664876
   34 H34       6 C6      5.050821        2.672780
   36 H36       3 C3      5.055217        2.675106
   35 H35       6 C6      5.056300        2.675679
    4 H4        2 O2      5.062661        2.679045
   33 H33       6 C6      5.068878        2.682335
   33 H33      11 C11     5.094701        2.696000
   17 C17      10 H10     5.097928        2.697707
   21 C21      20 H20     5.110602        2.704414
   36 H36       6 C6      5.117116        2.707861
   22 C22      14 N14     5.175488        2.738750
   21 C21      13 C13     5.187833        2.745283
   17 C17      16 C16     5.212035        2.758090
   26 H26      20 H20     5.213309        2.758764
   23 H23      15 C15     5.224713        2.764799
   29 H29      19 H19     5.236212        2.770884
   18 H18       6 C6      5.259598        2.783259
   35 H35      13 C13     5.266460        2.786890
   33 H33       4 H4      5.276029        2.791954
   14 N14       5 N5      5.284089        2.796220
   10 H10       3 C3      5.298478        2.803834
   31 H31      26 H26     5.348142        2.830115
   35 H35      12 C12     5.349439        2.830801
   16 C16       9 P9      5.365779        2.839448
   32 H32       1 O1      5.369318        2.841321
   14 N14       4 H4      5.383321        2.848731
   37 H37      12 C12     5.398569        2.856800
   39 H39      38 RU38    5.412590        2.864219
   35 H35      10 H10     5.419631        2.867945
   19 H19       8 C8      5.485254        2.902671
   15 C15       8 C8      5.524329        2.923349
    8 C8        7 C7      5.559619        2.942024
   19 H19      14 N14     5.562062        2.943316
   38 RU38     13 C13     5.563332        2.943989
   38 RU38      6 C6      5.563647        2.944155
   31 H31      20 H20     5.573815        2.949536
   15 C15       7 C7      5.601246        2.964052
   20 H20       7 C7      5.630100        2.979320
   36 H36      32 H32     5.636023        2.982455
   14 N14       9 P9      5.652998        2.991438
--


++    Isotope specification:
      ----------------------

 Center
 Type   Z    A    mass (Da)
 --------------------------
    1   8   16    15.994915
    2   6   12    12.000000
    3   1    1     1.007825
    4   7   14    14.003074
    5   6   12    12.000000
    6  15   31    30.973762
    7   1    1     1.007825
    8   6   12    12.000000
    9   7   14    14.003074
   10   6   12    12.000000
   11   1    1     1.007825
   12   6   12    12.000000
   13   1    1     1.007825
   14   8   16    15.994915
   15   1    1     1.007825
   16  44  102   101.904344
   17   1    1     1.007825
--


++    Rigid rotor info:
      -----------------


                    Total mass (a) : 373.02550

                    Center of mass 
                          X          Y          Z   
                      -0.00776   -0.22084    0.05195

                    Reference system based on center of mass
                    Coordinates and Masses of Atoms, in au and A
                          X          Y          Z        Mass
                      -0.81906   -5.24154   -2.35890   15.99491
                       0.02739   -1.97064   -4.13525   15.99491
                       4.82221   -4.38576   -1.39210   12.00000
                       4.63049   -0.04820   -3.27145    1.00783
                       4.02300   -2.10605    0.02890   14.00307
                       4.96005    0.20404   -1.26265   12.00000
                      -5.42577    1.88307   -3.56089   12.00000
                      -7.32062    0.16959    1.37702   12.00000
                      -4.32743    0.78418   -0.38843   30.97376
                       6.98147    0.43259   -0.95055    1.00783
                       4.98631   -2.22759    2.65448   12.00000
                      -0.79619   -1.89074    3.79494   12.00000
                       3.57048    2.56719   -0.44577   12.00000
                       1.10174    2.29707    0.04936   14.00307
                      -3.13792    3.77349    1.18948   12.00000
                      -0.39056    4.29193    0.60576   12.00000
                       4.68966    4.94748   -0.35702   12.00000
                       6.67510    5.14839   -0.73790    1.00783
                      -3.32555    3.44940    3.21286    1.00783
                      -4.29263    5.39393    0.69210    1.00783
                       0.64761    6.70243    0.68129   12.00000
                       3.22073    7.01627    0.20677   12.00000
                      -0.52732    8.29875    1.12360    1.00783
                       4.04820    8.87334    0.28183    1.00783
                      -1.44595   -2.91170    5.73703   15.99491
                      -6.81888    3.38318   -3.40101    1.00783
                      -6.24374    0.29972   -4.57537    1.00783
                      -3.81400    2.54296   -4.64137    1.00783
                      -6.86527   -0.40835    3.29077    1.00783
                      -8.34336   -1.36008    0.46948    1.00783
                      -8.51966    1.83605    1.42769    1.00783
                       4.12336   -6.04335   -0.42002    1.00783
                       6.88150   -4.48035   -1.50356    1.00783
                       4.00831   -4.33495   -3.26329    1.00783
                       4.38819   -0.57550    3.70036    1.00783
                       7.04722   -2.33662    2.65828    1.00783
                       4.21838   -3.87901    3.58170    1.00783
                      -0.21381   -1.49839   -0.12811  101.90434
                      -2.32587   -5.23550   -3.42497    1.00783

                    The Moment of Inertia Tensor / au
                                     X          Y        Z     
                    X             0.9497E+07
                    Y             0.1177E+06 0.1020E+08
                    Z             0.3298E+05-0.8636E+05 0.1404E+08

                    The Principal Axes and Moments of Inertia (au)
                    Eigenvalues : 0.1404E+08 0.1022E+08 0.9477E+07
                                     X'         Y'       Z'    
                    Eigenvectors:
                    X             0.6682E-02 0.1620E+00 0.9868E+00
                    Y            -0.2228E-01 0.9866E+00-0.1618E+00
                    Z             0.9997E+00 0.2091E-01-0.1020E-01

                    The Rotational Constants
                            (cm-1)            (GHz)
                              0.008            0.234
                              0.011            0.322
                              0.012            0.347


                    *******************************************
                    *                                         *
                    * R I G I D - R O T O R   A N A L Y S I S *
                    *                                         *
                    *******************************************

                    j(Max):  5

                    Rotor Type: Linear Rotor
                    Asymmetry parameter:  0.554
                    Prolate = -1
                    Oblate  =  1


                    Rotational energies / cm-1

                    E(J= 0,kappa= 0) =        0.000

                    E(J= 1,kappa=-1) =        0.019
                    E(J= 1,kappa= 0) =        0.019
                    E(J= 1,kappa= 1) =        0.022

                    E(J= 2,kappa=-2) =        0.053
                    E(J= 2,kappa=-1) =        0.054
                    E(J= 2,kappa= 0) =        0.062
                    E(J= 2,kappa= 1) =        0.065
                    E(J= 2,kappa= 2) =        0.067

                    E(J= 3,kappa=-3) =        0.104
                    E(J= 3,kappa=-2) =        0.104
                    E(J= 3,kappa=-1) =        0.120
                    E(J= 3,kappa= 0) =        0.121
                    E(J= 3,kappa= 1) =        0.128
                    E(J= 3,kappa= 2) =        0.133
                    E(J= 3,kappa= 3) =        0.135

                    E(J= 4,kappa=-4) =        0.170
                    E(J= 4,kappa=-3) =        0.170
                    E(J= 4,kappa=-2) =        0.193
                    E(J= 4,kappa=-1) =        0.193
                    E(J= 4,kappa= 0) =        0.208
                    E(J= 4,kappa= 1) =        0.210
                    E(J= 4,kappa= 2) =        0.216
                    E(J= 4,kappa= 3) =        0.224
                    E(J= 4,kappa= 4) =        0.225

                    E(J= 5,kappa=-5) =        0.251
                    E(J= 5,kappa=-4) =        0.251
                    E(J= 5,kappa=-3) =        0.281
                    E(J= 5,kappa=-2) =        0.281
                    E(J= 5,kappa=-1) =        0.303
                    E(J= 5,kappa= 0) =        0.304
                    E(J= 5,kappa= 1) =        0.318
                    E(J= 5,kappa= 2) =        0.322
                    E(J= 5,kappa= 3) =        0.327
                    E(J= 5,kappa= 4) =        0.339
                    E(J= 5,kappa= 5) =        0.339
--


++    Primitive basis info:
      ---------------------


                    *****************************************************
                    ******** Primitive Basis Functions (Valence) ********
                    *****************************************************


 Basis set:O.ANO-RCC...3S2P.                                                               

                  Type         
                   s
           No.      Exponent    Contraction Coefficients
            1  0.105374950D+06   0.000124  -0.000028   0.000026
            2  0.156792400D+05   0.000512  -0.000116   0.000107
            3  0.353454470D+04   0.002153  -0.000491   0.000460
            4  0.987365160D+03   0.008528  -0.001946   0.001796
            5  0.315978750D+03   0.030180  -0.007005   0.006676
            6  0.111654280D+03   0.090997  -0.021678   0.020534
            7  0.426994510D+02   0.217794  -0.056412   0.058286
            8  0.173955960D+02   0.368625  -0.112705   0.121297
            9  0.743830900D+01   0.336671  -0.158912   0.226415
           10  0.322286200D+01   0.096576  -0.033551  -0.042387
           11  0.125387700D+01   0.002145   0.353190  -1.010455
           12  0.495155000D+00   0.001194   0.553420  -0.153869
           13  0.191665000D+00   0.000539   0.230184   0.993453
           14  0.670830000D-01   0.000210   0.011273   0.185873

                  Type         
                   p
           No.      Exponent    Contraction Coefficients
           15  0.200000000D+03   0.000917  -0.000872
           16  0.465333670D+02   0.007377  -0.007064
           17  0.146218090D+02   0.034835  -0.033305
           18  0.531306400D+01   0.114440  -0.114413
           19  0.210252500D+01   0.255497  -0.299011
           20  0.850223000D+00   0.372256  -0.319861
           21  0.337597000D+00   0.332331   0.205509
           22  0.128892000D+00   0.140085   0.593593
           23  0.451120000D-01   0.023958   0.282290


 Basis set:C.ANO-RCC...3S2P.                                                               

                  Type         
                   s
           No.      Exponent    Contraction Coefficients
           47  0.505575010D+05   0.000113  -0.000025   0.000016
           48  0.752478560D+04   0.000530  -0.000118   0.000075
           49  0.169432760D+04   0.002450  -0.000546   0.000357
           50  0.472822790D+03   0.010054  -0.002245   0.001435
           51  0.151710750D+03   0.035454  -0.008043   0.005509
           52  0.539187460D+02   0.104407  -0.024426   0.016915
           53  0.206593110D+02   0.241289  -0.061368   0.051417
           54  0.838397600D+01   0.383423  -0.117777   0.113734
           55  0.357701500D+01   0.307851  -0.155049   0.233718
           56  0.154711800D+01   0.068724  -0.019333  -0.071838
           57  0.613013000D+00   0.000222   0.399693  -1.049091
           58  0.246068000D+00   0.001977   0.558942  -0.066627
           59  0.990870000D-01   0.002058   0.171120   1.011999
           60  0.346800000D-01   0.000418   0.007456   0.165605

                  Type         
                   p
           No.      Exponent    Contraction Coefficients
           61  0.833331550D+02   0.001345  -0.001772
           62  0.195576110D+02   0.010236  -0.014562
           63  0.608036500D+01   0.045201  -0.057457
           64  0.217931700D+01   0.141076  -0.212658
           65  0.865150000D+00   0.304739  -0.527171
           66  0.361944000D+00   0.399528  -0.092970
           67  0.154740000D+00   0.271916   0.663003
           68  0.654290000D-01   0.058577   0.336088
           69  0.229000000D-01  -0.000126   0.005470


 Basis set:H.ANO-RCC...2S.                                                                 

                  Type         
                   s
           No.      Exponent    Contraction Coefficients
           70  0.188614450D+03   0.000964  -0.001312
           71  0.282765960D+02   0.007492  -0.010345
           72  0.642483000D+01   0.037595  -0.050495
           73  0.181504100D+01   0.143395  -0.207386
           74  0.591063000D+00   0.348636  -0.435088
           75  0.212149000D+00   0.438297  -0.024730
           76  0.798910000D-01   0.165107   0.322526
           77  0.279620000D-01   0.021023   0.707275


 Basis set:N.ANO-RCC...3S2P.                                                               

                  Type         
                   s
           No.      Exponent    Contraction Coefficients
           78  0.747617150D+05   0.000118  -0.000027   0.000019
           79  0.111236540D+05   0.000517  -0.000118   0.000081
           80  0.251268570D+04   0.002267  -0.000520   0.000366
           81  0.703777290D+03   0.009145  -0.002103   0.001443
           82  0.225478790D+03   0.032393  -0.007568   0.005532
           83  0.796158100D+02   0.097708  -0.023468   0.017244
           84  0.302372830D+02   0.231704  -0.060429   0.052795
           85  0.122636220D+02   0.376890  -0.117055   0.115288
           86  0.526508600D+01   0.317742  -0.155532   0.235259
           87  0.233347100D+01   0.082113  -0.024689  -0.048964
           88  0.901856000D+00   0.003312   0.362505  -1.023218
           89  0.358336000D+00   0.003721   0.555084  -0.148159
           90  0.141093000D+00   0.003165   0.214838   1.021558
           91  0.493830000D-01   0.000460   0.008984   0.172402

                  Type         
                   p
           No.      Exponent    Contraction Coefficients
           92  0.126666570D+03   0.001234  -0.001466
           93  0.298373890D+02   0.009493  -0.011821
           94  0.939403800D+01   0.042940  -0.049831
           95  0.340510400D+01   0.136293  -0.173090
           96  0.135000000D+01   0.292136  -0.473237
           97  0.557696000D+00   0.388789  -0.205511
           98  0.232449000D+00   0.294680   0.591038
           99  0.942640000D-01   0.080129   0.451180
          100  0.329920000D-01   0.000541   0.013675


 Basis set:C.ANO-RCC...3S2P.                                                               

                  Type         
                   s
           No.      Exponent    Contraction Coefficients
          101  0.505575010D+05   0.000113  -0.000025   0.000016
          102  0.752478560D+04   0.000530  -0.000118   0.000075
          103  0.169432760D+04   0.002450  -0.000546   0.000357
          104  0.472822790D+03   0.010054  -0.002245   0.001435
          105  0.151710750D+03   0.035454  -0.008043   0.005509
          106  0.539187460D+02   0.104407  -0.024426   0.016915
          107  0.206593110D+02   0.241289  -0.061368   0.051417
          108  0.838397600D+01   0.383423  -0.117777   0.113734
          109  0.357701500D+01   0.307851  -0.155049   0.233718
          110  0.154711800D+01   0.068724  -0.019333  -0.071838
          111  0.613013000D+00   0.000222   0.399693  -1.049091
          112  0.246068000D+00   0.001977   0.558942  -0.066627
          113  0.990870000D-01   0.002058   0.171120   1.011999
          114  0.346800000D-01   0.000418   0.007456   0.165605

                  Type         
                   p
           No.      Exponent    Contraction Coefficients
          115  0.833331550D+02   0.001345  -0.001772
          116  0.195576110D+02   0.010236  -0.014562
          117  0.608036500D+01   0.045201  -0.057457
          118  0.217931700D+01   0.141076  -0.212658
          119  0.865150000D+00   0.304739  -0.527171
          120  0.361944000D+00   0.399528  -0.092970
          121  0.154740000D+00   0.271916   0.663003
          122  0.654290000D-01   0.058577   0.336088
          123  0.229000000D-01  -0.000126   0.005470


 Basis set:P.ANO-RCC...4S3P.                                                               

                  Type         
                   s
           No.      Exponent    Contraction Coefficients
          170  0.296647550D+06  -0.000278   0.000066   0.000042  -0.000021
          171  0.423800300D+05  -0.000920   0.000218   0.000140  -0.000069
          172  0.125038560D+05  -0.002112   0.000503   0.000324  -0.000158
          173  0.442249370D+04  -0.006118   0.001461   0.000938  -0.000457
          174  0.168184780D+04  -0.017156   0.004147   0.002667  -0.001290
          175  0.663214900D+03  -0.048906   0.012039   0.007700  -0.003702
          176  0.267005850D+03  -0.128061   0.033290   0.021236  -0.009969
          177  0.108895920D+03  -0.280856   0.081855   0.051433  -0.023169
          178  0.447973140D+02  -0.408791   0.158144   0.097900  -0.040366
          179  0.185403120D+02  -0.239938   0.141889   0.085829  -0.033441
          180  0.770709950D+01  -0.020129  -0.179413  -0.105386   0.039743
          181  0.321437500D+01  -0.005211  -0.551931  -0.405333   0.236354
          182  0.134401270D+01  -0.001161  -0.269939  -0.366796   0.478799
          183  0.563087000D+00   0.003590  -0.048811   0.252762  -0.852342
          184  0.236287000D+00   0.014643  -0.145579   0.631092  -1.009743
          185  0.992811000D-01   0.006883  -0.080411   0.309338   1.172316
          186  0.397124000D-01   0.000538  -0.008907   0.021962   0.410274

                  Type         
                   p
           No.      Exponent    Contraction Coefficients
          187  0.101841220D+04   0.000823  -0.000196   0.000196
          188  0.247398200D+03   0.005507  -0.001308   0.001270
          189  0.877904820D+02   0.023423  -0.005636   0.005713
          190  0.342486000D+02   0.085691  -0.020859   0.020321
          191  0.138770140D+02   0.228880  -0.057676   0.059638
          192  0.573030980D+01   0.397112  -0.102511   0.099600
          193  0.239200680D+01   0.367905  -0.105932   0.125349
          194  0.100527670D+01   0.105637   0.060910  -0.109693
          195  0.424392900D+00  -0.000359   0.393662  -0.721429
          196  0.179730600D+00  -0.000516   0.471351  -0.003709
          197  0.762910000D-01  -0.001324   0.204967   0.646806
          198  0.305164000D-01   0.000005   0.030803   0.374610


 Basis set:H.ANO-RCC...2S.                                                                 

                  Type         
                   s
           No.      Exponent    Contraction Coefficients
          199  0.188614450D+03   0.000964  -0.001312
          200  0.282765960D+02   0.007492  -0.010345
          201  0.642483000D+01   0.037595  -0.050495
          202  0.181504100D+01   0.143395  -0.207386
          203  0.591063000D+00   0.348636  -0.435088
          204  0.212149000D+00   0.438297  -0.024730
          205  0.798910000D-01   0.165107   0.322526
          206  0.279620000D-01   0.021023   0.707275


 Basis set:C.ANO-RCC...3S2P.                                                               

                  Type         
                   s
           No.      Exponent    Contraction Coefficients
          207  0.505575010D+05   0.000113  -0.000025   0.000016
          208  0.752478560D+04   0.000530  -0.000118   0.000075
          209  0.169432760D+04   0.002450  -0.000546   0.000357
          210  0.472822790D+03   0.010054  -0.002245   0.001435
          211  0.151710750D+03   0.035454  -0.008043   0.005509
          212  0.539187460D+02   0.104407  -0.024426   0.016915
          213  0.206593110D+02   0.241289  -0.061368   0.051417
          214  0.838397600D+01   0.383423  -0.117777   0.113734
          215  0.357701500D+01   0.307851  -0.155049   0.233718
          216  0.154711800D+01   0.068724  -0.019333  -0.071838
          217  0.613013000D+00   0.000222   0.399693  -1.049091
          218  0.246068000D+00   0.001977   0.558942  -0.066627
          219  0.990870000D-01   0.002058   0.171120   1.011999
          220  0.346800000D-01   0.000418   0.007456   0.165605

                  Type         
                   p
           No.      Exponent    Contraction Coefficients
          221  0.833331550D+02   0.001345  -0.001772
          222  0.195576110D+02   0.010236  -0.014562
          223  0.608036500D+01   0.045201  -0.057457
          224  0.217931700D+01   0.141076  -0.212658
          225  0.865150000D+00   0.304739  -0.527171
          226  0.361944000D+00   0.399528  -0.092970
          227  0.154740000D+00   0.271916   0.663003
          228  0.654290000D-01   0.058577   0.336088
          229  0.229000000D-01  -0.000126   0.005470


 Basis set:N.ANO-RCC...3S2P.                                                               

                  Type         
                   s
           No.      Exponent    Contraction Coefficients
          276  0.747617150D+05   0.000118  -0.000027   0.000019
          277  0.111236540D+05   0.000517  -0.000118   0.000081
          278  0.251268570D+04   0.002267  -0.000520   0.000366
          279  0.703777290D+03   0.009145  -0.002103   0.001443
          280  0.225478790D+03   0.032393  -0.007568   0.005532
          281  0.796158100D+02   0.097708  -0.023468   0.017244
          282  0.302372830D+02   0.231704  -0.060429   0.052795
          283  0.122636220D+02   0.376890  -0.117055   0.115288
          284  0.526508600D+01   0.317742  -0.155532   0.235259
          285  0.233347100D+01   0.082113  -0.024689  -0.048964
          286  0.901856000D+00   0.003312   0.362505  -1.023218
          287  0.358336000D+00   0.003721   0.555084  -0.148159
          288  0.141093000D+00   0.003165   0.214838   1.021558
          289  0.493830000D-01   0.000460   0.008984   0.172402

                  Type         
                   p
           No.      Exponent    Contraction Coefficients
          290  0.126666570D+03   0.001234  -0.001466
          291  0.298373890D+02   0.009493  -0.011821
          292  0.939403800D+01   0.042940  -0.049831
          293  0.340510400D+01   0.136293  -0.173090
          294  0.135000000D+01   0.292136  -0.473237
          295  0.557696000D+00   0.388789  -0.205511
          296  0.232449000D+00   0.294680   0.591038
          297  0.942640000D-01   0.080129   0.451180
          298  0.329920000D-01   0.000541   0.013675


 Basis set:C.ANO-RCC...3S2P.                                                               

                  Type         
                   s
           No.      Exponent    Contraction Coefficients
          299  0.505575010D+05   0.000113  -0.000025   0.000016
          300  0.752478560D+04   0.000530  -0.000118   0.000075
          301  0.169432760D+04   0.002450  -0.000546   0.000357
          302  0.472822790D+03   0.010054  -0.002245   0.001435
          303  0.151710750D+03   0.035454  -0.008043   0.005509
          304  0.539187460D+02   0.104407  -0.024426   0.016915
          305  0.206593110D+02   0.241289  -0.061368   0.051417
          306  0.838397600D+01   0.383423  -0.117777   0.113734
          307  0.357701500D+01   0.307851  -0.155049   0.233718
          308  0.154711800D+01   0.068724  -0.019333  -0.071838
          309  0.613013000D+00   0.000222   0.399693  -1.049091
          310  0.246068000D+00   0.001977   0.558942  -0.066627
          311  0.990870000D-01   0.002058   0.171120   1.011999
          312  0.346800000D-01   0.000418   0.007456   0.165605

                  Type         
                   p
           No.      Exponent    Contraction Coefficients
          313  0.833331550D+02   0.001345  -0.001772
          314  0.195576110D+02   0.010236  -0.014562
          315  0.608036500D+01   0.045201  -0.057457
          316  0.217931700D+01   0.141076  -0.212658
          317  0.865150000D+00   0.304739  -0.527171
          318  0.361944000D+00   0.399528  -0.092970
          319  0.154740000D+00   0.271916   0.663003
          320  0.654290000D-01   0.058577   0.336088
          321  0.229000000D-01  -0.000126   0.005470


 Basis set:H.ANO-RCC...2S.                                                                 

                  Type         
                   s
           No.      Exponent    Contraction Coefficients
          368  0.188614450D+03   0.000964  -0.001312
          369  0.282765960D+02   0.007492  -0.010345
          370  0.642483000D+01   0.037595  -0.050495
          371  0.181504100D+01   0.143395  -0.207386
          372  0.591063000D+00   0.348636  -0.435088
          373  0.212149000D+00   0.438297  -0.024730
          374  0.798910000D-01   0.165107   0.322526
          375  0.279620000D-01   0.021023   0.707275


 Basis set:C.ANO-RCC...3S2P.                                                               

                  Type         
                   s
           No.      Exponent    Contraction Coefficients
          392  0.505575010D+05   0.000113  -0.000025   0.000016
          393  0.752478560D+04   0.000530  -0.000118   0.000075
          394  0.169432760D+04   0.002450  -0.000546   0.000357
          395  0.472822790D+03   0.010054  -0.002245   0.001435
          396  0.151710750D+03   0.035454  -0.008043   0.005509
          397  0.539187460D+02   0.104407  -0.024426   0.016915
          398  0.206593110D+02   0.241289  -0.061368   0.051417
          399  0.838397600D+01   0.383423  -0.117777   0.113734
          400  0.357701500D+01   0.307851  -0.155049   0.233718
          401  0.154711800D+01   0.068724  -0.019333  -0.071838
          402  0.613013000D+00   0.000222   0.399693  -1.049091
          403  0.246068000D+00   0.001977   0.558942  -0.066627
          404  0.990870000D-01   0.002058   0.171120   1.011999
          405  0.346800000D-01   0.000418   0.007456   0.165605

                  Type         
                   p
           No.      Exponent    Contraction Coefficients
          406  0.833331550D+02   0.001345  -0.001772
          407  0.195576110D+02   0.010236  -0.014562
          408  0.608036500D+01   0.045201  -0.057457
          409  0.217931700D+01   0.141076  -0.212658
          410  0.865150000D+00   0.304739  -0.527171
          411  0.361944000D+00   0.399528  -0.092970
          412  0.154740000D+00   0.271916   0.663003
          413  0.654290000D-01   0.058577   0.336088
          414  0.229000000D-01  -0.000126   0.005470


 Basis set:H.ANO-RCC...2S.                                                                 

                  Type         
                   s
           No.      Exponent    Contraction Coefficients
          438  0.188614450D+03   0.000964  -0.001312
          439  0.282765960D+02   0.007492  -0.010345
          440  0.642483000D+01   0.037595  -0.050495
          441  0.181504100D+01   0.143395  -0.207386
          442  0.591063000D+00   0.348636  -0.435088
          443  0.212149000D+00   0.438297  -0.024730
          444  0.798910000D-01   0.165107   0.322526
          445  0.279620000D-01   0.021023   0.707275


 Basis set:O.ANO-RCC...3S2P.                                                               

                  Type         
                   s
           No.      Exponent    Contraction Coefficients
          454  0.105374950D+06   0.000124  -0.000028   0.000026
          455  0.156792400D+05   0.000512  -0.000116   0.000107
          456  0.353454470D+04   0.002153  -0.000491   0.000460
          457  0.987365160D+03   0.008528  -0.001946   0.001796
          458  0.315978750D+03   0.030180  -0.007005   0.006676
          459  0.111654280D+03   0.090997  -0.021678   0.020534
          460  0.426994510D+02   0.217794  -0.056412   0.058286
          461  0.173955960D+02   0.368625  -0.112705   0.121297
          462  0.743830900D+01   0.336671  -0.158912   0.226415
          463  0.322286200D+01   0.096576  -0.033551  -0.042387
          464  0.125387700D+01   0.002145   0.353190  -1.010455
          465  0.495155000D+00   0.001194   0.553420  -0.153869
          466  0.191665000D+00   0.000539   0.230184   0.993453
          467  0.670830000D-01   0.000210   0.011273   0.185873

                  Type         
                   p
           No.      Exponent    Contraction Coefficients
          468  0.200000000D+03   0.000917  -0.000872
          469  0.465333670D+02   0.007377  -0.007064
          470  0.146218090D+02   0.034835  -0.033305
          471  0.531306400D+01   0.114440  -0.114413
          472  0.210252500D+01   0.255497  -0.299011
          473  0.850223000D+00   0.372256  -0.319861
          474  0.337597000D+00   0.332331   0.205509
          475  0.128892000D+00   0.140085   0.593593
          476  0.451120000D-01   0.023958   0.282290


 Basis set:H.ANO-RCC...2S.                                                                 

                  Type         
                   s
           No.      Exponent    Contraction Coefficients
          477  0.188614450D+03   0.000964  -0.001312
          478  0.282765960D+02   0.007492  -0.010345
          479  0.642483000D+01   0.037595  -0.050495
          480  0.181504100D+01   0.143395  -0.207386
          481  0.591063000D+00   0.348636  -0.435088
          482  0.212149000D+00   0.438297  -0.024730
          483  0.798910000D-01   0.165107   0.322526
          484  0.279620000D-01   0.021023   0.707275


 Basis set:RU.ANO-RCC...6S5P3D.                                                            

                  Type         
                   s
           No.      Exponent    Contraction Coefficients
          573  0.240082896D+08   0.000211  -0.000071   0.000030  -0.000012   0.000003  -0.000004
          574  0.333598099D+07   0.000629  -0.000211   0.000090  -0.000037   0.000009  -0.000013
          575  0.671907416D+06   0.001790  -0.000602   0.000258  -0.000104   0.000027  -0.000036
          576  0.167149978D+06   0.004624  -0.001562   0.000669  -0.000271   0.000070  -0.000094
          577  0.483819012D+05   0.011573  -0.003941   0.001691  -0.000685   0.000177  -0.000237
          578  0.157041609D+05   0.028678  -0.009929   0.004269  -0.001726   0.000444  -0.000595
          579  0.557449458D+04   0.070513  -0.025133   0.010854  -0.004407   0.001138  -0.001534
          580  0.212159631D+04   0.163345  -0.062218   0.027110  -0.010968   0.002819  -0.003768
          581  0.851853314D+03   0.313022  -0.136572   0.060764  -0.024870   0.006438  -0.008719
          582  0.357061668D+03   0.381626  -0.222209   0.103280  -0.042096   0.010793  -0.014335
          583  0.154188376D+03   0.185094  -0.113776   0.056435  -0.024478   0.006543  -0.009313
          584  0.658210557D+02   0.011364   0.428140  -0.286404   0.129152  -0.034315   0.047991
          585  0.299216525D+02   0.002334   0.611083  -0.606633   0.281288  -0.072737   0.096103
          586  0.137645551D+02  -0.001765   0.139294   0.067511  -0.022839   0.002327  -0.000112
          587  0.632318098D+01   0.001077   0.006543   0.894943  -0.761252   0.228798  -0.336974
          588  0.286808667D+01  -0.000620  -0.001507   0.316186  -0.322278   0.081582  -0.086654
          589  0.121046730D+01   0.000300   0.000831  -0.003571   0.976106  -0.364392   0.681486
          590  0.474729190D+00  -0.000130  -0.000477   0.005441   0.444214  -0.371157   0.166685
          591  0.165217160D+00   0.000053   0.000193  -0.001837  -0.011142   0.421699  -1.067480
          592  0.505418800D-01  -0.000023  -0.000089   0.000829   0.012353   0.723292  -0.389261
          593  0.202167500D-01   0.000009   0.000032  -0.000295  -0.003091   0.121848   1.258975

                  Type         
                   p
           No.      Exponent    Contraction Coefficients
          594  0.581160979D+06   0.000035  -0.000016   0.000006  -0.000002   0.000006
          595  0.849507118D+05   0.000158  -0.000070   0.000027  -0.000010   0.000026
          596  0.188156282D+05   0.000676  -0.000301   0.000114  -0.000044   0.000113
          597  0.540518171D+04   0.002801  -0.001250   0.000474  -0.000182   0.000462
          598  0.186673392D+04   0.010947  -0.004927   0.001881  -0.000726   0.001869
          599  0.732162845D+03   0.038371  -0.017518   0.006665  -0.002556   0.006499
          600  0.314126008D+03   0.112250  -0.052985   0.020415  -0.007896   0.020423
          601  0.143665970D+03   0.250791  -0.124026   0.047782  -0.018338   0.046693
          602  0.686311581D+02   0.377479  -0.199286   0.078867  -0.030753   0.080318
          603  0.337373411D+02   0.302653  -0.121097   0.041747  -0.015224   0.035386
          604  0.164568246D+02   0.089933   0.240936  -0.122381   0.049119  -0.141664
          605  0.807731060D+01   0.004153   0.544521  -0.315925   0.130231  -0.338543
          606  0.400079628D+01   0.001293   0.325022  -0.144214   0.054204  -0.139581
          607  0.180382157D+01  -0.000502   0.040459   0.454830  -0.264691   1.246980
          608  0.808086240D+00   0.000197  -0.000829   0.580319  -0.293779  -0.374695
          609  0.328931230D+00  -0.000107   0.000805   0.165139   0.189237  -0.968468
          610  0.131572490D+00   0.000045  -0.000274  -0.002135   0.605091   0.161666
          611  0.526289900D-01  -0.000014   0.000078   0.002432   0.377313   0.631744

                  Type         
                   d
           No.      Exponent    Contraction Coefficients
          612  0.851853314D+03   0.001085  -0.000323   0.000374
          613  0.357061668D+03   0.003980  -0.001167   0.001146
          614  0.154188376D+03   0.022867  -0.006841   0.007774
          615  0.658210557D+02   0.086481  -0.025878   0.026764
          616  0.299216525D+02   0.225653  -0.068936   0.078381
          617  0.137645551D+02   0.386845  -0.113078   0.113145
          618  0.632318098D+01   0.372310  -0.091196   0.124455
          619  0.286808667D+01   0.140762   0.131707  -0.232861
          620  0.121046730D+01   0.011589   0.416983  -0.606611
          621  0.474729190D+00   0.000728   0.452520   0.194294
          622  0.165217160D+00  -0.000016   0.232336   0.625342
          623  0.660868600D-01   0.000082   0.021003   0.171283
          624  0.264347500D-01  -0.000023   0.009222   0.046984


 Basis set:H.ANO-RCC...2S.                                                                 

                  Type         
                   s
           No.      Exponent    Contraction Coefficients
          625  0.188614450D+03   0.000964  -0.001312
          626  0.282765960D+02   0.007492  -0.010345
          627  0.642483000D+01   0.037595  -0.050495
          628  0.181504100D+01   0.143395  -0.207386
          629  0.591063000D+00   0.348636  -0.435088
          630  0.212149000D+00   0.438297  -0.024730
          631  0.798910000D-01   0.165107   0.322526
          632  0.279620000D-01   0.021023   0.707275

  Number of primitives                                 1050
  Number of basis functions                             242

--


++    SO/AO info:
      -----------

                    **************************************************
                    ********** Petite list Basis Functions ***********
                    **************************************************


           Basis functions generated by E  

 Basis Label        Type   Center
    1  O1            1s       1
    2  O1            2s       1
    3  O1            3s       1
    4  O1            2px      1
    5  O1            3px      1
    6  O1            2py      1
    7  O1            3py      1
    8  O1            2pz      1
    9  O1            3pz      1
   10  O2            1s       2
   11  O2            2s       2
   12  O2            3s       2
   13  O2            2px      2
   14  O2            3px      2
   15  O2            2py      2
   16  O2            3py      2
   17  O2            2pz      2
   18  O2            3pz      2
   19  C3            1s       3
   20  C3            2s       3
   21  C3            3s       3
   22  C3            2px      3
   23  C3            3px      3
   24  C3            2py      3
   25  C3            3py      3
   26  C3            2pz      3
   27  C3            3pz      3
   28  H4            1s       4
   29  H4            2s       4
   30  N5            1s       5
   31  N5            2s       5
   32  N5            3s       5
   33  N5            2px      5
   34  N5            3px      5
   35  N5            2py      5
   36  N5            3py      5
   37  N5            2pz      5
   38  N5            3pz      5
   39  C6            1s       6
   40  C6            2s       6
   41  C6            3s       6
   42  C6            2px      6
   43  C6            3px      6
   44  C6            2py      6
   45  C6            3py      6
   46  C6            2pz      6
   47  C6            3pz      6
   48  C7            1s       7
   49  C7            2s       7
   50  C7            3s       7
   51  C7            2px      7
   52  C7            3px      7
   53  C7            2py      7
   54  C7            3py      7
   55  C7            2pz      7
   56  C7            3pz      7
   57  C8            1s       8
   58  C8            2s       8
   59  C8            3s       8
   60  C8            2px      8
   61  C8            3px      8
   62  C8            2py      8
   63  C8            3py      8
   64  C8            2pz      8
   65  C8            3pz      8
   66  P9            1s       9
   67  P9            2s       9
   68  P9            3s       9
   69  P9            4s       9
   70  P9            2px      9
   71  P9            3px      9
   72  P9            4px      9
   73  P9            2py      9
   74  P9            3py      9
   75  P9            4py      9
   76  P9            2pz      9
   77  P9            3pz      9
   78  P9            4pz      9
   79  H10           1s      10
   80  H10           2s      10
   81  C11           1s      11
   82  C11           2s      11
   83  C11           3s      11
   84  C11           2px     11
   85  C11           3px     11
   86  C11           2py     11
   87  C11           3py     11
   88  C11           2pz     11
   89  C11           3pz     11
   90  C12           1s      12
   91  C12           2s      12
   92  C12           3s      12
   93  C12           2px     12
   94  C12           3px     12
   95  C12           2py     12
   96  C12           3py     12
   97  C12           2pz     12
   98  C12           3pz     12
   99  C13           1s      13
  100  C13           2s      13
  101  C13           3s      13
  102  C13           2px     13
  103  C13           3px     13
  104  C13           2py     13
  105  C13           3py     13
  106  C13           2pz     13
  107  C13           3pz     13
  108  N14           1s      14
  109  N14           2s      14
  110  N14           3s      14
  111  N14           2px     14
  112  N14           3px     14
  113  N14           2py     14
  114  N14           3py     14
  115  N14           2pz     14
  116  N14           3pz     14
  117  C15           1s      15
  118  C15           2s      15
  119  C15           3s      15
  120  C15           2px     15
  121  C15           3px     15
  122  C15           2py     15
  123  C15           3py     15
  124  C15           2pz     15
  125  C15           3pz     15
  126  C16           1s      16
  127  C16           2s      16
  128  C16           3s      16
  129  C16           2px     16
  130  C16           3px     16
  131  C16           2py     16
  132  C16           3py     16
  133  C16           2pz     16
  134  C16           3pz     16
  135  C17           1s      17
  136  C17           2s      17
  137  C17           3s      17
  138  C17           2px     17
  139  C17           3px     17
  140  C17           2py     17
  141  C17           3py     17
  142  C17           2pz     17
  143  C17           3pz     17
  144  H18           1s      18
  145  H18           2s      18
  146  H19           1s      19
  147  H19           2s      19
  148  H20           1s      20
  149  H20           2s      20
  150  C21           1s      21
  151  C21           2s      21
  152  C21           3s      21
  153  C21           2px     21
  154  C21           3px     21
  155  C21           2py     21
  156  C21           3py     21
  157  C21           2pz     21
  158  C21           3pz     21
  159  C22           1s      22
  160  C22           2s      22
  161  C22           3s      22
  162  C22           2px     22
  163  C22           3px     22
  164  C22           2py     22
  165  C22           3py     22
  166  C22           2pz     22
  167  C22           3pz     22
  168  H23           1s      23
  169  H23           2s      23
  170  H24           1s      24
  171  H24           2s      24
  172  O25           1s      25
  173  O25           2s      25
  174  O25           3s      25
  175  O25           2px     25
  176  O25           3px     25
  177  O25           2py     25
  178  O25           3py     25
  179  O25           2pz     25
  180  O25           3pz     25
  181  H26           1s      26
  182  H26           2s      26
  183  H27           1s      27
  184  H27           2s      27
  185  H28           1s      28
  186  H28           2s      28
  187  H29           1s      29
  188  H29           2s      29
  189  H30           1s      30
  190  H30           2s      30
  191  H31           1s      31
  192  H31           2s      31
  193  H32           1s      32
  194  H32           2s      32
  195  H33           1s      33
  196  H33           2s      33
  197  H34           1s      34
  198  H34           2s      34
  199  H35           1s      35
  200  H35           2s      35
  201  H36           1s      36
  202  H36           2s      36
  203  H37           1s      37
  204  H37           2s      37
  205  RU38          1s      38
  206  RU38          2s      38
  207  RU38          3s      38
  208  RU38          4s      38
  209  RU38          5s      38
  210  RU38          6s      38
  211  RU38          2px     38
  212  RU38          3px     38
  213  RU38          4px     38
  214  RU38          5px     38
  215  RU38          6px     38
  216  RU38          2py     38
  217  RU38          3py     38
  218  RU38          4py     38
  219  RU38          5py     38
  220  RU38          6py     38
  221  RU38          2pz     38
  222  RU38          3pz     38
  223  RU38          4pz     38
  224  RU38          5pz     38
  225  RU38          6pz     38
  226  RU38          3d2-    38
  227  RU38          4d2-    38
  228  RU38          5d2-    38
  229  RU38          3d1-    38
  230  RU38          4d1-    38
  231  RU38          5d1-    38
  232  RU38          3d0     38
  233  RU38          4d0     38
  234  RU38          5d0     38
  235  RU38          3d1+    38
  236  RU38          4d1+    38
  237  RU38          5d1+    38
  238  RU38          3d2+    38
  239  RU38          4d2+    38
  240  RU38          5d2+    38
  241  H39           1s      39
  242  H39           2s      39

      Basis set specifications :
      Symmetry species        a  
      Basis functions         242
--


            Nuclear Potential Energy           2643.94283342 au

--- Stop Module: gateway at Wed Jul 15 17:58:08 2020 /rc=_RC_ALL_IS_WELL_ ---
*** files: GMe-Cis-CI23-D0-VDZ-SA-CAS1311-Pi-CI23-Opt-Thres-6D-4.RICDLib xmldump
    saved to directory /home/ubuntu/newcas/build/calc/200715
--- Module gateway spent 21 seconds ---

--- Start Module: seward at Wed Jul 15 17:58:08 2020 ---

()()()()()()()()()()()()()()()()()()()()()()()()()()()()()()()()()()()()()()()()()()()()()()()()()()

                                              &SEWARD

                                   only a single process is used
                       available to each process: 20 GB of memory, 16 threads
                                             pid: 10446
()()()()()()()()()()()()()()()()()()()()()()()()()()()()()()()()()()()()()()()()()()()()()()()()()()


  Weights used for alignment and distance                     
  mat. size =    39x    1
       15.9949146195700003
       15.9949146195700003
       12.0000000000000000
        1.0078250322300000
[...]
        0.1489895606520181      0.3816118744657062     -0.0262445416206350
        0.0098480324016066     -0.0192592420994969     -0.0013495112956296
       -0.1096218057084005     -0.2723363547113837      0.0400483521502753
        0.0011169619472005     -0.0018126248597610      0.0024724145143967
       -0.0220415501984706     -0.0190051350807695      0.0192369647145976
       -0.0100811474781789      0.0001166577957713     -0.0026581502459164
       -0.0014182416831567     -0.0023894581272508      0.0009399786700285
        0.0050087723776742     -0.0055789451965638     -0.0046187815997897
       -0.0004397677881605     -0.0009095540034857     -0.0028271309693511
        0.0117573040884822     -0.0028418388708736     -0.0086055620497653
       -0.0029455043492151      0.0013681174597192      0.0001982106319641
       -0.0004606380405186     -0.0032672061822987      0.0006474690448884
        0.0002397109693692     -0.0002085215785497      0.0008281786561263
       -0.1608640469958507     -0.2952166602065380      0.3866861382899097
       -0.0001156266838229     -0.0002070563993418     -0.0028085495877687
       -0.0029529366169447      0.0005158083261408     -0.0012700304096852
       -0.0004609789955646      0.0028580086987413     -0.0006195503997853
        0.0046935015608449     -0.0002874575890896     -0.0004885149773753
       -0.0014955922165897      0.0002402765098211     -0.0002357369206804
        0.0010827149082986      0.0004787088808876     -0.0014378337215699
        0.0033120135598421     -0.0011666034411790      0.0031143030598807
       -0.0027839342066304     -0.0031127426149552     -0.0013564173113090
        0.0063637462170171     -0.0016976874193165     -0.0030399064097438
       -0.0084441790247867     -0.0067937320295011      0.0008475204323538
        0.0016357739611188      0.0002211921113071     -0.0049177938975450
       -0.0036958876981422      0.0060273184029466      0.0016481601221943
        0.1861432150166705      0.3141799580346440     -0.3188203782814193
        0.0119063829611069     -0.0555356942476042     -0.0414980514760670

  Local y                                                     
  mat. size =    39x    3
       -0.0117041529128555      0.0471709981178737      0.4441491843045112
        0.0791019986014527      0.3372247155548389     -0.2984843460266613
       -0.0011867709681380     -0.0079176562962683     -0.0092839293151726
       -0.0034655036221237      0.0003356484939155      0.0011668355277023
       -0.0696686307762520      0.0142317769272032     -0.0061499415094366
        0.0022385692113536      0.0062148115959949     -0.0055351584760492
        0.0039962269072535     -0.0070760320246999     -0.0021209503064450
        0.0091212974283702     -0.0174069574881730      0.0015526943854722
        0.0163233301677037      0.0224072547871073     -0.0043617090823132
       -0.0021004191502296     -0.0013855459183581      0.0020266437009786
       -0.0012321104437640      0.0018101457996494      0.0101892703094263
        0.0899905378946373      0.3583470013015166      0.1453258127481590
        0.0121311206600927     -0.0194438274608699     -0.0104868798383487
       -0.0704836355434516     -0.1680893713173968      0.0992878000513132
        0.0048782288592024     -0.0004897318736743      0.0079468288549872
       -0.0181603700763618      0.0048085359084396      0.0014766859439625
       -0.0092497539755537      0.0015058960237927     -0.0049935068886588
       -0.0015139910516418     -0.0019818577583392      0.0004008147799623
        0.0018426484367522     -0.0016565616077328     -0.0012918344536312
        0.0004788331713504     -0.0015419323299176     -0.0021410923658355
        0.0007727156131689     -0.0042893045191534     -0.0084070978136426
        0.0014980904513005     -0.0001150019500398      0.0006336820940331
       -0.0003762053572394     -0.0018123692244592      0.0000839000608558
        0.0000608443806230     -0.0004978882714625      0.0008724212679212
       -0.0522026366940661     -0.1685873962959099     -0.0172207883453470
        0.0008040706302857     -0.0018427572796969      0.0038945860429450
        0.0011812888768093      0.0005551906166801     -0.0009737815124161
        0.0001680429469446     -0.0018460767774566     -0.0001399656035598
       -0.0003013386599051      0.0001234523080912      0.0004077184811020
       -0.0014255234398648      0.0001790317493511      0.0007612664035011
        0.0061359166117348      0.0007700870901970     -0.0038514979249778
       -0.0016489749589997      0.0007656956258471     -0.0001944114571366
       -0.0022399023106157      0.0034143361300520      0.0035072025077337
       -0.0044378121032210      0.0011597247743716      0.0011704441071487
       -0.0016219048041058     -0.0022698271676915      0.0005511184031920
       -0.0025889547794479     -0.0013750305243540     -0.0038952806381111
       -0.0006073991803779      0.0012719608142835      0.0007749803279497
       -0.0064868793850811     -0.4658319095155195     -0.3569937630602606
        0.0319791093493671      0.0731607719868261      0.0103460443148718

     Average energy:  -5668.63478711 +   0.03021306*x +   0.01645820*y
     Energy difference:   0.15512589*sqrt(r^2 +   0.58825151*t)
          r^2 = x^2 + y^2
          t = x^2 - y^2
--

++ Geometry section

********************************************************************************
  Geometrical information of the final structure
********************************************************************************

  NOTE: on convergence the final predicted structure will be printed here.
  This is not identical to the structure printed in the head of the output.

 *********************************************************
 * Nuclear coordinates of the final structure / Bohr     *
 *********************************************************
  ATOM              X               Y               Z     
  O1              -0.826340       -5.461061       -2.306591
  O2               0.020258       -2.190690       -4.082897
  C3               4.814263       -4.606165       -1.340179
  H4               4.622512       -0.269267       -3.219058
  N5               4.015426       -2.326522        0.081331
  C6               4.951972       -0.016749       -1.210587
  C7              -5.434091        1.662258       -3.508623
  C8              -7.328310       -0.051910        1.429060
  P9              -4.335421        0.563310       -0.336535
  H10              6.972976        0.212243       -0.898689
  C11              4.978418       -2.448566        2.706954
  C12             -0.803466       -2.112644        3.846102
  C13              3.562728        2.346196       -0.393237
  N14              1.093791        2.075970        0.101001
  C15             -3.145281        3.553087        1.241313
  C16             -0.397915        4.071120        0.657584
  C17              4.682001        4.726319       -0.304733
  H18              6.667303        4.926764       -0.685222
  H19             -3.332632        3.228916        3.264582
  H20             -4.299661        5.173629        0.744243
  C21              0.640315        6.481685        0.732478
  C22              3.213467        6.795268        0.257853
  H23             -0.534680        8.077872        1.174040
  H24              4.041051        8.652067        0.331999
  O25             -1.453984       -3.132868        5.789084
  H26             -6.827210        3.162202       -3.349029
  H27             -6.252517        0.079749       -4.523815
  H28             -3.822466        2.322358       -4.588978
  H29             -6.873136       -0.629747        3.342741
  H30             -8.350518       -1.581760        0.521544
  H31             -8.528383        1.613600        1.480511
  H32              4.115357       -6.263782       -0.368555
  H33              6.873455       -4.700766       -1.451700
  H34              4.000530       -4.555068       -3.210889
  H35              4.379992       -0.797068        3.753088
  H36              7.039068       -2.557742        2.711592
  H37              4.210202       -4.100229        3.633007
  RU38            -0.221326       -1.718959       -0.076317
  H39             -2.332402       -5.455002       -3.373445


 *********************************************************
 * Nuclear coordinates of the final structure / Angstrom *
 *********************************************************
  ATOM              X               Y               Z     
  O1              -0.437280       -2.889869       -1.220595
  O2               0.010720       -1.159263       -2.160576
  C3               2.547598       -2.437478       -0.709192
  H4               2.446128       -0.142490       -1.703452
  N5               2.124872       -1.231142        0.043039
  C6               2.620471       -0.008863       -0.640615
  C7              -2.875597        0.879629       -1.856683
  C8              -3.877975       -0.027469        0.756226
  P9              -2.294206        0.298091       -0.178086
  H10              3.689940        0.112314       -0.475566
  C11              2.634465       -1.295725        1.432459
  C12             -0.425176       -1.117963        2.035270
  C13              1.885314        1.241554       -0.208092
  N14              0.578809        1.098556        0.053447
  C15             -1.664411        1.880212        0.656875
  C16             -0.210568        2.154344        0.347979
  C17              2.477608        2.501060       -0.161258
  H18              3.528185        2.607131       -0.362604
  H19             -1.763553        1.708669        1.727543
  H20             -2.275283        2.737767        0.393836
  C21              0.338840        3.429960        0.387611
  C22              1.700493        3.595901        0.136450
  H23             -0.282940        4.274626        0.621275
  H24              2.138432        4.578477        0.175686
  O25             -0.769415       -1.657842        3.063451
  H26             -3.612804        1.673365       -1.772230
  H27             -3.308689        0.042201       -2.393900
  H28             -2.022762        1.228939       -2.428383
  H29             -3.637107       -0.333248        1.768903
  H30             -4.418904       -0.837031        0.275989
  H31             -4.513026        0.853880        0.783452
  H32              2.177753       -3.314650       -0.195031
  H33              3.637276       -2.487538       -0.768207
  H34              2.116989       -2.410438       -1.699129
  H35              2.317792       -0.421790        1.986049
  H36              3.724915       -1.353499        1.434913
  H37              2.227943       -2.169748        1.922504
  RU38            -0.117121       -0.909634       -0.040385
  H39             -1.234254       -2.886663       -1.785150


                    ************************************************* 
                    **** InterNuclear Distances / Bohr, Angstrom **** 
                    ************************************************* 

     Atom centers         Bohr        Angstrom
   39 H39       1 O1      1.845654        0.976678
   23 H23      21 C21     2.030617        1.074556
   18 H18      17 C17     2.031348        1.074943
   24 H24      22 C22     2.034231        1.076469
   34 H34       3 C3      2.040668        1.079875
   37 H37      11 C11     2.043458        1.081351
   35 H35      11 C11     2.044494        1.081899
   32 H32       3 C3      2.044557        1.081933
   28 H28       7 C7      2.049447        1.084521
   29 H29       8 C8      2.050184        1.084911
   27 H27       7 C7      2.050554        1.085106
   20 H20      15 C15     2.050812        1.085243
    6 C6        4 H4      2.050919        1.085299
   30 H30       8 C8      2.051569        1.085644
   26 H26       7 C7      2.053310        1.086565
   31 H31       8 C8      2.053471        1.086650
   19 H19      15 C15     2.057621        1.088846
   10 H10       6 C6      2.057712        1.088894
   36 H36      11 C11     2.063546        1.091981
   33 H33       3 C3      2.064379        1.092422
   25 O25      12 C12     2.288932        1.211250
   14 N14      13 C13     2.532378        1.340077
   16 C16      14 N14     2.552566        1.350760
   22 C22      17 C17     2.598778        1.375214
   21 C21      16 C16     2.625711        1.389466
   17 C17      13 C13     2.631651        1.392610
   22 C22      21 C21     2.635282        1.394531
   11 C11       5 N5      2.799312        1.481332
    5 N5        3 C3      2.802785        1.483170
    6 C6        5 N5      2.807352        1.485586
   16 C16      15 C15     2.856067        1.511365
   13 C13       6 C6      2.860344        1.513629
   28 H28      27 H27     3.307369        1.750184
   37 H37      35 H35     3.309701        1.751418
   34 H34      32 H32     3.318396        1.756019
   30 H30      29 H29     3.323874        1.758918
   20 H20      19 H19     3.327036        1.760591
   10 H10       4 H4      3.337761        1.766267
   31 H31      30 H30     3.340894        1.767925
   27 H27      26 H26     3.348419        1.771907
   33 H33      32 H32     3.350123        1.772809
   37 H37      36 H36     3.351232        1.773396
   31 H31      29 H29     3.352663        1.774153
   36 H36      35 H35     3.354903        1.775338
   28 H28      26 H26     3.357276        1.776594
   34 H34      33 H33     3.371894        1.784330
    9 P9        8 C8      3.528910        1.867419
    9 P9        7 C7      3.532267        1.869195
   15 C15       9 P9      3.583964        1.896552
    2 O2        1 O1      3.816715        2.019719
    5 N5        4 H4      3.936168        2.082930
   32 H32       5 N5      3.964139        2.097732
   37 H37       5 N5      3.974717        2.103330
   34 H34       5 N5      3.975595        2.103794
   38 RU38     12 C12     3.984878        2.108706
   13 C13       4 H4      3.993627        2.113337
   35 H35       5 N5      3.994238        2.113660
   36 H36       5 N5      4.014244        2.124246
   19 H19      16 C16     4.014762        2.124520
   10 H10       5 N5      4.019064        2.126797
   33 H33       5 N5      4.019397        2.126973
   38 RU38     14 N14     4.020257        2.127428
   24 H24      17 C17     4.028367        2.131720
   22 C22      18 H18     4.038525        2.137095
   38 RU38      2 O2      4.041482        2.138660
   23 H23      16 C16     4.042214        2.139047
   18 H18      13 C13     4.047588        2.141891
   24 H24      21 C21     4.054126        2.145351
   13 C13      10 H10     4.054508        2.145553
   20 H20      16 C16     4.055448        2.146051
   23 H23      22 C22     4.066088        2.151681
   39 H39       2 O2      4.085837        2.162132
   38 RU38      5 N5      4.282996        2.266464
   34 H34       4 H4      4.330706        2.291711
   38 RU38      1 O1      4.398123        2.327386
   16 C16      13 C13     4.445928        2.352684
   21 C21      14 N14     4.473782        2.367424
   17 C17      14 N14     4.479310        2.370349
   22 C22      13 C13     4.510005        2.386592
   21 C21      17 C17     4.526846        2.395504
   22 C22      16 C16     4.541238        2.403120
   37 H37      32 H32     4.549995        2.407753
   36 H36      10 H10     4.550969        2.408269
   14 N14       6 C6      4.580971        2.424145
   11 C11       3 C3      4.589278        2.428541
   19 H19       9 P9      4.591196        2.429556
    6 C6        3 C3      4.593311        2.430675
   11 C11       6 C6      4.611026        2.440050
   29 H29       9 P9      4.626063        2.448007
   28 H28       9 P9      4.630404        2.450304
   27 H27       9 P9      4.630594        2.450405
   15 C15      14 N14     4.631621        2.450948
   30 H30       9 P9      4.632346        2.451332
   24 H24      18 H18     4.670099        2.471310
   36 H36      33 H33     4.685401        2.479407
   24 H24      23 H23     4.687861        2.480709
   31 H31       9 P9      4.688890        2.481254
   26 H26       9 P9      4.694505        2.484225
   34 H34       2 O2      4.710971        2.492939
   38 RU38      9 P9      4.711926        2.493444
   13 C13       5 N5      4.718522        2.496934
   18 H18      10 H10     4.729240        2.502606
    4 H4        3 C3      4.730289        2.503161
   20 H20       9 P9      4.735441        2.505887
   23 H23      20 H20     4.774352        2.526478
   21 C21      15 C15     4.813143        2.547005
   17 C17       6 C6      4.836336        2.559279
   11 C11      10 H10     4.904981        2.595604
   33 H33      10 H10     4.945036        2.616800
   32 H32      11 C11     4.975892        2.633129
   34 H34       1 O1      4.993721        2.642564
   37 H37       3 C3      5.035220        2.664524
   34 H34       6 C6      5.050029        2.672360
   36 H36       3 C3      5.055952        2.675494
   35 H35       6 C6      5.057087        2.676095
    4 H4        2 O2      5.061504        2.678432
   33 H33       6 C6      5.068556        2.682164
   33 H33      11 C11     5.094897        2.696103
   17 C17      10 H10     5.096885        2.697155
   21 C21      20 H20     5.110237        2.704221
   36 H36       6 C6      5.118214        2.708442
   22 C22      14 N14     5.175848        2.738941
   21 C21      13 C13     5.187485        2.745099
   17 C17      16 C16     5.211610        2.757865
   26 H26      20 H20     5.214329        2.759304
   23 H23      15 C15     5.224313        2.764587
   29 H29      19 H19     5.237418        2.771523
   18 H18       6 C6      5.258962        2.782923
   35 H35      13 C13     5.266882        2.787114
   33 H33       4 H4      5.275271        2.791553
   14 N14       5 N5      5.283774        2.796053
   10 H10       3 C3      5.298303        2.803741
   35 H35      12 C12     5.348610        2.830362
   31 H31      26 H26     5.349450        2.830807
   16 C16       9 P9      5.366280        2.839713
   32 H32       1 O1      5.368493        2.840884
   14 N14       4 H4      5.382825        2.848468
   37 H37      12 C12     5.397478        2.856223
   39 H39      38 RU38    5.411627        2.863710
   35 H35      10 H10     5.420453        2.868380
   19 H19       8 C8      5.486201        2.903173
   15 C15       8 C8      5.525304        2.923865
    8 C8        7 C7      5.559420        2.941919
   19 H19      14 N14     5.561542        2.943041
   38 RU38     13 C13     5.562823        2.943719
   38 RU38      6 C6      5.563012        2.943819
   31 H31      20 H20     5.576557        2.950987
   15 C15       7 C7      5.601409        2.964138
   20 H20       7 C7      5.630588        2.979579
   36 H36      32 H32     5.636499        2.982707
   14 N14       9 P9      5.652957        2.991416

                **************************************************
                * Radius of hypersphere / au*amu**(1/2)/amu(1/2) *
                **************************************************
                                     0.0007

--
--- Stop Module: slapaf at Wed Jul 15 19:04:00 2020 /rc=_RC_ALL_IS_WELL_ ---
*** files: GMe-Cis-CI23-D0-VDZ-SA-CAS1311-Pi-CI23-Opt-Thres-6D-4.geo.molden GMe-Cis-CI23-D0-VDZ-SA-CAS1311-Pi-CI23-Opt-Thres-6D-4.slapaf.h5
           GMe-Cis-CI23-D0-VDZ-SA-CAS1311-Pi-CI23-Opt-Thres-6D-4.structure GMe-Cis-CI23-D0-VDZ-SA-CAS1311-Pi-CI23-Opt-Thres-6D-4.Opt.xyz xmldump
    saved to directory /home/ubuntu/newcas/build/calc/200715

>>> END DO

.##################.
.# Happy landing! #.
.##################.

    Timing: Wall=3971.62 User=35514.29 System=689.79
*********************************************************************************************************
*** WorkDir at /tmp/molcas_calculations/GMe-Cis-CI23-D0-VDZ-SA-CAS1311-Pi-CI23-Opt-Thres-6D-4 cleaned ***
*********************************************************************************************************
