 Entering Gaussian System, Link 0=g16
 Initial command:
 /cluster/chemistry/gaussian/g16/l1.exe "/scratch/js1212.757590/scratch/Gau-21791.inp" -scrdir="/scratch/js1212.757590/scratch/"
 Entering Link 1 = /cluster/chemistry/gaussian/g16/l1.exe PID=     21793.
  
 Copyright (c) 1988,1990,1992,1993,1995,1998,2003,2009,2016,
            Gaussian, Inc.  All Rights Reserved.
  
 This is part of the Gaussian(R) 16 program.  It is based on
 the Gaussian(R) 09 system (copyright 2009, Gaussian, Inc.),
 the Gaussian(R) 03 system (copyright 2003, Gaussian, Inc.),
 the Gaussian(R) 98 system (copyright 1998, Gaussian, Inc.),
 the Gaussian(R) 94 system (copyright 1995, Gaussian, Inc.),
 the Gaussian 92(TM) system (copyright 1992, Gaussian, Inc.),
 the Gaussian 90(TM) system (copyright 1990, Gaussian, Inc.),
 the Gaussian 88(TM) system (copyright 1988, Gaussian, Inc.),
 the Gaussian 86(TM) system (copyright 1986, Carnegie Mellon
 University), and the Gaussian 82(TM) system (copyright 1983,
 Carnegie Mellon University). Gaussian is a federally registered
 trademark of Gaussian, Inc.
  
 This software contains proprietary and confidential information,
 including trade secrets, belonging to Gaussian, Inc.
  
 This software is provided under written license and may be
 used, copied, transmitted, or stored only in accord with that
 written license.
  
 The following legend is applicable only to US Government
 contracts under FAR:
  
                    RESTRICTED RIGHTS LEGEND
  
 Use, reproduction and disclosure by the US Government is
 subject to restrictions as set forth in subparagraphs (a)
 and (c) of the Commercial Computer Software - Restricted
 Rights clause in FAR 52.227-19.
  
 Gaussian, Inc.
 340 Quinnipiac St., Bldg. 40, Wallingford CT 06492
  
  
 ---------------------------------------------------------------
 Warning -- This program may not be used in any manner that
 competes with the business of Gaussian, Inc. or will provide
 assistance to any competitor of Gaussian, Inc.  The licensee
 of this program is prohibited from giving any competitor of
 Gaussian, Inc. access to this program.  By using this program,
 the user acknowledges that Gaussian, Inc. is engaged in the
 business of creating and licensing software in the field of
 computational chemistry and represents and warrants to the
 licensee that it is not a competitor of Gaussian, Inc. and that
 it will not use this program in any manner prohibited above.
 ---------------------------------------------------------------
  

 Cite this work as:
 Gaussian 16, Revision A.03,
 M. J. Frisch, G. W. Trucks, H. B. Schlegel, G. E. Scuseria, 
 M. A. Robb, J. R. Cheeseman, G. Scalmani, V. Barone, 
 G. A. Petersson, H. Nakatsuji, X. Li, M. Caricato, A. V. Marenich, 
 J. Bloino, B. G. Janesko, R. Gomperts, B. Mennucci, H. P. Hratchian, 
 J. V. Ortiz, A. F. Izmaylov, J. L. Sonnenberg, D. Williams-Young, 
 F. Ding, F. Lipparini, F. Egidi, J. Goings, B. Peng, A. Petrone, 
 T. Henderson, D. Ranasinghe, V. G. Zakrzewski, J. Gao, N. Rega, 
 G. Zheng, W. Liang, M. Hada, M. Ehara, K. Toyota, R. Fukuda, 
 J. Hasegawa, M. Ishida, T. Nakajima, Y. Honda, O. Kitao, H. Nakai, 
 T. Vreven, K. Throssell, J. A. Montgomery, Jr., J. E. Peralta, 
 F. Ogliaro, M. J. Bearpark, J. J. Heyd, E. N. Brothers, K. N. Kudin, 
 V. N. Staroverov, T. A. Keith, R. Kobayashi, J. Normand, 
 K. Raghavachari, A. P. Rendell, J. C. Burant, S. S. Iyengar, 
 J. Tomasi, M. Cossi, J. M. Millam, M. Klene, C. Adamo, R. Cammi, 
 J. W. Ochterski, R. L. Martin, K. Morokuma, O. Farkas, 
 J. B. Foresman, and D. J. Fox, Gaussian, Inc., Wallingford CT, 2016.
 
 ******************************************
 Gaussian 16:  ES64L-G16RevA.03 25-Dec-2016
                22-Jul-2020 
 ******************************************
 %rwf=/scratch/js1212.757590/H-Trans-R2-R2-Down-RuMove-T-GP-SMD.rwf
 %nosave
 %nprocshared=20
 Will use up to   20 processors via shared memory.
 %mem=3000MB
 %oldchk=/data/js1212/200706_g16/H-Trans-R2-R2-Down-RuMove-T-GPF.chk
 %chk=/scratch/js1212.757590/H-Trans-R2-R2-Down-RuMove-T-GP-SMD.chk
 Copying data from "/data/js1212/200706_g16/H-Trans-R2-R2-Down-RuMove-T-GPF.chk" to current chk file "/scratch/js1212.757590/H-Trans-R2-R2-Down-RuMove-T-GP-SMD.chk"
 IOpt=  2 FromEx=T IUOpen= 4 IOptOp= 5 NList=   0 IFRang= 0 IUIn= 4 IUOut= 2.
 ----------------------------------------------------------------------
 # genecp pbe1pbe EmpiricalDispersion=GD3BJ scrf=(SMD,solvent=water) ge
 om=allcheck
 ----------------------------------------------------------------------
 1/29=7,38=1,172=1/1;
 2/12=2,40=1/2;
 3/5=7,11=2,14=-4,16=1,17=8,25=1,30=1,70=32201,72=1,74=-13,124=41/1,2,3;
 4//1;
 5/5=2,38=5,53=1/2;
 6/7=2,8=2,9=2,10=2,28=1/1;
 99/5=1,9=1/99;
 Structure from the checkpoint file:  "/scratch/js1212.757590/H-Trans-R2-R2-Down-RuMove-T-GP-SMD.chk"
 -------------------
 Title Card Required
 -------------------
 Charge =  0 Multiplicity = 3
 Redundant internal coordinates found in file.  (old form).
 H,0,0.7836069907,3.1249076802,0.3792961394
 C,0,-0.1023258473,2.7809857148,0.933173819
 H,0,0.0027381473,3.1266874706,1.9731217615
 H,0,-0.0884771523,1.6817760576,0.9201206115
 H,0,-3.000616064,-1.4317260832,-3.0293542477
 O,0,-2.6470249716,1.2901823474,-1.6670473677
 H,0,-2.3468875083,-3.1985873118,-1.5022154353
 O,0,-1.2250444058,1.0928895888,-1.836227184
 H,0,-0.6966791884,-0.6136181633,0.645542583
 C,0,-1.3415043386,3.3181129518,0.2518160855
 H,0,-4.350464286,-1.6892998128,-4.1586909076
 H,0,-1.3643155568,4.4242018746,0.3100045137
 C,0,-4.0083628435,-1.8652039853,-3.1245543293
 H,0,-1.7157332858,-2.5194907797,0.0082825308
 H,0,-3.9298929634,-2.9550616074,-2.9952970655
 H,0,-1.3297804797,3.0343405096,-0.8083224827
 C,0,-2.4095069103,-3.2643911427,-0.4072084399
 H,0,-2.0701336162,-4.2698667705,-0.104455334
 H,0,-3.4981180878,3.2357132509,-1.003184458
 Ru,0,-3.0096042071,0.5603421793,0.2528703611
 H,0,-4.3042260972,0.7948018848,-2.5380405232
 N,0,-2.6058392322,2.7748803863,0.7965662703
 C,0,-3.7213525525,3.4116615723,0.0632534036
 C,0,-5.0176462976,-1.2387573544,-2.1615449306
 H,0,-5.6143034656,0.2187159872,-3.6180446982
 H,0,-4.7373075782,-4.1946029984,-1.5386125857
 C,0,-5.2408373053,0.2207264457,-2.5793881336
 C,0,-3.8370431563,-3.0364183577,0.1007375037
 P,0,-4.2863543099,-1.2465843319,-0.3898316243
 H,0,-3.7680226329,4.4986036603,0.2463513243
 C,0,-4.7605532411,-4.1250371082,-0.4436413357
 H,0,-1.9666202894,2.3802501388,2.7418118978
 H,0,-1.6877225837,4.8915927664,2.515813448
 H,0,-4.4263383386,-5.0989254667,-0.0470765103
 C,0,-2.740521871,2.9873245417,2.255526529
 H,0,-6.6962512624,-1.8883141349,-3.3279573915
 C,0,-2.817585183,-0.0307519945,1.973704115
 C,0,-6.3712020395,-1.9470531322,-2.2752710644
 H,0,-3.2095407658,-2.3982254184,2.1134878787
 C,0,-3.8351220705,-3.1545173776,1.6261899918
 H,0,-6.3500902958,-3.0069748771,-2.000154525
 H,0,-3.4300188693,-4.1439676979,1.896829111
 C,0,-5.0375030076,2.7549721854,0.3653197552
 N,0,-4.9709248765,1.4175367482,0.3987211262
 C,0,-2.6574451493,4.425477661,2.7448988851
 H,0,-6.0064577565,0.7153926825,-1.9636883696
 H,0,-3.7021807206,2.5436384812,2.5526483243
 H,0,-5.8035122681,-3.9839053507,-0.1222591161
 H,0,-3.4508529497,5.0642276067,2.3282343448
 C,0,-5.8018111718,-0.8247203112,0.6500989846
 H,0,-2.7757959923,4.4339870298,3.8388261627
 H,0,-7.1481516233,-1.4466974102,-1.6778887715
 C,0,-6.0572916961,0.6538534364,0.6007339852
 C,0,-6.251004637,3.4106686187,0.5416906644
 H,0,-4.8501063036,-3.0964248263,2.0482050239
 H,0,-6.2976585385,4.5002729826,0.5163762132
 H,0,-5.504262144,-1.0762536569,1.6815967138
 H,0,-6.7054018184,-1.4025779076,0.4106071082
 C,0,-7.3065112139,1.2518599592,0.7669006487
 C,0,-7.3988142504,2.6416622491,0.7363087122
 H,0,-8.1921593439,0.6341223176,0.9218979497
 H,0,-8.367248298,3.1274849255,0.8696098921
 O,0,-2.6175815002,-0.3384330018,3.0888009203
 C,0,1.5492562239,-4.4583499197,-1.0326903031
 H,0,-2.2562221042,0.8641437374,-4.0095789687
 O,0,0.0652067606,-0.5829158701,0.0401674232
 H,0,-0.6960158993,2.8813772573,-3.5318459968
 O,0,-0.7981114132,-1.1533852967,-3.0534029926
 H,0,-0.2676169042,0.0764981574,-0.6088160056
 C,0,1.1469391048,-3.1159766045,-1.6268666604
 H,0,-3.3921330376,0.8738393659,-5.3739886554
 C,0,-2.3794330575,1.172486899,-5.0541911506
 H,0,0.9570641844,2.5481287292,-3.0345003523
 H,0,-2.3398182516,2.2704825641,-5.0865434557
 C,0,0.353336438,3.1042375712,-3.7658272347
 H,0,0.5275934866,4.1849746746,-3.6267980623
 H,0,0.3306319287,-3.6999237825,-3.9139411613
 Ru,0,1.1448443974,-0.6531825851,-3.7459157973
 H,0,-1.4436107086,-1.4216656554,-4.9774274599
 N,0,1.8343156817,-2.7063352793,-2.8762368783
 C,0,1.4291604391,-3.6247298182,-3.9636841091
 C,0,-1.3582290585,0.5207579266,-5.9876576212
 H,0,-2.6171065304,-1.1890456443,-6.3077124528
 H,0,-1.1050125445,3.5375288594,-6.0716720157
 C,0,-1.5805989263,-0.9978511812,-5.9811298214
 C,0,0.7400997258,2.7161991352,-5.1959922075
 P,0,0.4077388451,0.8400702266,-5.3284064197
 H,0,1.8521066795,-4.6336903404,-3.816287631
 C,0,-0.016129114,3.5880019334,-6.1975276632
 H,0,3.7289157431,-2.342980842,-3.6585107326
 H,0,3.3325184863,-0.9528069832,-1.5003088203
 H,0,0.2822477518,4.6378552903,-6.0366504271
 C,0,3.3062885944,-2.741134146,-2.724468396
 H,0,-2.6080968023,0.733522404,-7.7173219893
 C,0,2.7873285249,0.1233583028,-3.7249534085
 C,0,-1.5790557299,1.0025455007,-7.4245737819
 H,0,2.8741996419,2.3744243897,-4.7504501153
 C,0,2.2336653617,2.9899730319,-5.3929104337
 H,0,-1.4780368903,2.0856234706,-7.5505985464
 H,0,2.424955824,4.0442715001,-5.1320874791
 C,0,1.7796600928,-3.1168664816,-5.3314627829
 N,0,1.5011348619,-1.8167587065,-5.5151997551
 C,0,3.8067478402,-1.9434922034,-1.5369128397
 H,0,-0.916455911,-1.5115041761,-6.6929720404
 H,0,3.6423197944,-3.7934265466,-2.6425845612
 H,0,0.2314722613,3.3359009298,-7.2396475793
 H,0,3.6072363179,-2.4505351128,-0.5822600115
 C,0,1.4856007487,0.2601545781,-6.7530115099
 H,0,4.8929073525,-1.7984322298,-1.6235987209
 H,0,-0.9075139787,0.5026899525,-8.1386739896
 C,0,1.7110569836,-1.2235940363,-6.7058209813
 C,0,2.285363536,-3.9011776606,-6.3601753523
 H,0,2.545893246,2.8569014225,-6.4403223502
 H,0,2.5142311298,-4.9536453616,-6.1863345576
 H,0,2.4622468149,0.7375879307,-6.5688075571
 H,0,1.1479654169,0.5882476785,-7.7464921065
 C,0,2.1803209163,-1.9663920452,-7.7879428911
 C,0,2.4717570105,-3.3173166931,-7.6135075462
 H,0,2.3288327672,-1.4817028806,-8.7540825558
 H,0,2.8533196233,-3.9096997454,-8.4468153492
 H,0,-0.678548005,-1.5290626567,-2.1711239038
 O,0,3.8579943817,0.597990439,-3.6536293425
 H,0,0.9305008056,-4.6382396235,-0.1407044074
 H,0,2.6002086944,-4.486540206,-0.7094352385
 H,0,1.3798741413,-5.3012629695,-1.7202990056
 H,0,0.0771984994,-3.1492871485,-1.8705985107
 H,0,1.2669156691,-2.308421622,-0.8940935809
 H,0,-1.16813659,0.2563226743,-2.4036016506
 Recover connectivity data from disk.
                           ----------------------------
                           !    Current Parameters    !
                           ! (Angstroms and Degrees)  !
 --------------------------                            --------------------------
 ! Name  Definition              Value                                          !
 --------------------------------------------------------------------------------
 ! R1    R(1,2)                  1.1                                            !
 ! R2    R(2,3)                  1.1009                                         !
 ! R3    R(2,4)                  1.0994                                         !
 ! R4    R(2,10)                 1.5127                                         !
 ! R5    R(5,13)                 1.1011                                         !
 ! R6    R(5,68)                 2.2202                                         !
 ! R7    R(5,121)                2.4775                                         !
 ! R8    R(6,8)                  1.4455                                         !
 ! R9    R(6,20)                 2.0857                                         !
 ! R10   R(7,17)                 1.0988                                         !
 ! R11   R(8,128)                1.0124                                         !
 ! R12   R(9,66)                 0.9736                                         !
 ! R13   R(10,12)                1.1079                                         !
 ! R14   R(10,16)                1.0975                                         !
 ! R15   R(10,22)                1.48                                           !
 ! R16   R(11,13)                1.1034                                         !
 ! R17   R(13,15)                1.1003                                         !
 ! R18   R(13,24)                1.5292                                         !
 ! R19   R(14,17)                1.0995                                         !
 ! R20   R(17,18)                1.1035                                         !
 ! R21   R(17,28)                1.5323                                         !
 ! R22   R(19,23)                1.1037                                         !
 ! R23   R(20,29)                2.3039                                         !
 ! R24   R(20,37)                1.8296                                         !
 ! R25   R(20,44)                2.1454                                         !
 ! R26   R(21,27)                1.0993                                         !
 ! R27   R(21,65)                2.5228                                         !
 ! R28   R(22,23)                1.4791                                         !
 ! R29   R(22,35)                1.4805                                         !
 ! R30   R(23,30)                1.1032                                         !
 ! R31   R(23,43)                1.5016                                         !
 ! R32   R(24,27)                1.5344                                         !
 ! R33   R(24,29)                1.9167                                         !
 ! R34   R(24,38)                1.5319                                         !
 ! R35   R(25,27)                1.1038                                         !
 ! R36   R(25,71)                2.907                                          !
 ! R37   R(26,31)                1.0974                                         !
 ! R38   R(27,46)                1.1                                            !
 ! R39   R(28,29)                1.9095                                         !
 ! R40   R(28,31)                1.5278                                         !
 ! R41   R(28,40)                1.53                                           !
 ! R42   R(29,50)                1.8857                                         !
 ! R43   R(31,34)                1.1034                                         !
 ! R44   R(31,48)                1.1004                                         !
 ! R45   R(32,35)                1.0972                                         !
 ! R46   R(33,45)                1.1                                            !
 ! R47   R(35,45)                1.5214                                         !
 ! R48   R(35,47)                1.1                                            !
 ! R49   R(36,38)                1.1033                                         !
 ! R50   R(37,63)                1.1739                                         !
 ! R51   R(38,41)                1.0952                                         !
 ! R52   R(38,52)                1.1004                                         !
 ! R53   R(39,40)                1.0958                                         !
 ! R54   R(40,42)                1.1029                                         !
 ! R55   R(40,55)                1.1008                                         !
 ! R56   R(43,44)                1.3395                                         !
 ! R57   R(43,54)                1.3906                                         !
 ! R58   R(44,53)                1.3432                                         !
 ! R59   R(45,49)                1.1005                                         !
 ! R60   R(45,51)                1.1003                                         !
 ! R61   R(50,53)                1.5013                                         !
 ! R62   R(50,57)                1.1026                                         !
 ! R63   R(50,58)                1.099                                          !
 ! R64   R(53,59)                1.3949                                         !
 ! R65   R(54,56)                1.0909                                         !
 ! R66   R(54,60)                1.3952                                         !
 ! R67   R(59,60)                1.3932                                         !
 ! R68   R(59,61)                1.0909                                         !
 ! R69   R(60,62)                1.0916                                         !
 ! R70   R(64,70)                1.5221                                         !
 ! R71   R(64,123)               1.1004                                         !
 ! R72   R(64,124)               1.0999                                         !
 ! R73   R(64,125)               1.1009                                         !
 ! R74   R(65,72)                1.0961                                         !
 ! R75   R(66,69)                0.9832                                         !
 ! R76   R(66,126)               3.1996                                         !
 ! R77   R(67,75)                1.098                                          !
 ! R78   R(68,78)                2.1225                                         !
 ! R79   R(68,121)               0.9664                                         !
 ! R80   R(70,80)                1.4837                                         !
 ! R81   R(70,126)               1.0977                                         !
 ! R82   R(70,127)               1.097                                          !
 ! R83   R(71,72)                1.1032                                         !
 ! R84   R(72,74)                1.0992                                         !
 ! R85   R(72,82)                1.5294                                         !
 ! R86   R(73,75)                1.0994                                         !
 ! R87   R(75,76)                1.1035                                         !
 ! R88   R(75,86)                1.5315                                         !
 ! R89   R(77,81)                1.1022                                         !
 ! R90   R(78,87)                2.2973                                         !
 ! R91   R(78,95)                1.8169                                         !
 ! R92   R(78,102)               2.1474                                         !
 ! R93   R(79,85)                1.0981                                         !
 ! R94   R(80,81)                1.4799                                         !
 ! R95   R(80,93)                1.4802                                         !
 ! R96   R(81,88)                1.1039                                         !
 ! R97   R(81,101)               1.5005                                         !
 ! R98   R(82,85)                1.5348                                         !
 ! R99   R(82,87)                1.9119                                         !
 ! R100  R(82,96)                1.5315                                         !
 ! R101  R(83,85)                1.1034                                         !
 ! R102  R(84,89)                1.0973                                         !
 ! R103  R(85,104)               1.1007                                         !
 ! R104  R(86,87)                1.9099                                         !
 ! R105  R(86,89)                1.5281                                         !
 ! R106  R(86,98)                1.5312                                         !
 ! R107  R(87,108)               1.8782                                         !
 ! R108  R(89,92)                1.1032                                         !
 ! R109  R(89,106)               1.1004                                         !
 ! R110  R(90,93)                1.0998                                         !
 ! R111  R(91,103)               1.0989                                         !
 ! R112  R(93,103)               1.5156                                         !
 ! R113  R(93,105)               1.1077                                         !
 ! R114  R(94,96)                1.1032                                         !
 ! R115  R(95,122)               1.1733                                         !
 ! R116  R(96,99)                1.0951                                         !
 ! R117  R(96,110)               1.1003                                         !
 ! R118  R(97,98)                1.0963                                         !
 ! R119  R(98,100)               1.1028                                         !
 ! R120  R(98,113)               1.101                                          !
 ! R121  R(101,102)              1.3422                                         !
 ! R122  R(101,112)              1.3889                                         !
 ! R123  R(102,111)              1.3467                                         !
 ! R124  R(103,107)              1.0992                                         !
 ! R125  R(103,109)              1.0992                                         !
 ! R126  R(108,111)              1.5015                                         !
 ! R127  R(108,115)              1.1026                                         !
 ! R128  R(108,116)              1.0994                                         !
 ! R129  R(111,117)              1.3939                                         !
 ! R130  R(112,114)              1.091                                          !
 ! R131  R(112,118)              1.3952                                         !
 ! R132  R(117,118)              1.393                                          !
 ! R133  R(117,119)              1.0911                                         !
 ! R134  R(118,120)              1.0913                                         !
 ! A1    A(1,2,3)              107.494                                          !
 ! A2    A(1,2,4)              107.2471                                         !
 ! A3    A(1,2,10)             108.781                                          !
 ! A4    A(3,2,4)              108.9036                                         !
 ! A5    A(3,2,10)             113.0884                                         !
 ! A6    A(4,2,10)             111.0997                                         !
 ! A7    A(13,5,68)            163.0036                                         !
 ! A8    A(13,5,121)           150.7207                                         !
 ! A9    A(8,6,20)             103.3548                                         !
 ! A10   A(6,8,128)            103.5126                                         !
 ! A11   A(2,10,12)            110.3478                                         !
 ! A12   A(2,10,16)            109.5433                                         !
 ! A13   A(2,10,22)            113.8088                                         !
 ! A14   A(12,10,16)           108.005                                          !
 ! A15   A(12,10,22)           109.241                                          !
 ! A16   A(16,10,22)           105.6499                                         !
 ! A17   A(5,13,11)            107.5793                                         !
 ! A18   A(5,13,15)            108.3307                                         !
 ! A19   A(5,13,24)            112.8496                                         !
 ! A20   A(11,13,15)           106.8657                                         !
 ! A21   A(11,13,24)           108.6803                                         !
 ! A22   A(15,13,24)           112.263                                          !
 ! A23   A(7,17,14)            107.4619                                         !
 ! A24   A(7,17,18)            108.0861                                         !
 ! A25   A(7,17,28)            111.9965                                         !
 ! A26   A(14,17,18)           108.637                                          !
 ! A27   A(14,17,28)           111.211                                          !
 ! A28   A(18,17,28)           109.337                                          !
 ! A29   A(6,20,29)             96.5453                                         !
 ! A30   A(6,20,37)            163.8583                                         !
 ! A31   A(6,20,44)             94.6857                                         !
 ! A32   A(29,20,37)            93.8506                                         !
 ! A33   A(29,20,44)            79.9628                                         !
 ! A34   A(37,20,44)            99.2699                                         !
 ! A35   A(27,21,65)           133.1614                                         !
 ! A36   A(10,22,23)           107.6852                                         !
 ! A37   A(10,22,35)           112.8157                                         !
 ! A38   A(23,22,35)           110.9896                                         !
 ! A39   A(19,23,22)           104.9447                                         !
 ! A40   A(19,23,30)           109.0254                                         !
 ! A41   A(19,23,43)           107.5747                                         !
 ! A42   A(22,23,30)           111.9496                                         !
 ! A43   A(22,23,43)           111.9036                                         !
 ! A44   A(30,23,43)           111.1251                                         !
 ! A45   A(13,24,27)           108.31                                           !
 ! A46   A(13,24,29)           109.1848                                         !
 ! A47   A(13,24,38)           110.3042                                         !
 ! A48   A(27,24,29)           108.1249                                         !
 ! A49   A(27,24,38)           106.9203                                         !
 ! A50   A(29,24,38)           113.8189                                         !
 ! A51   A(27,25,71)           108.0203                                         !
 ! A52   A(21,27,24)           111.2557                                         !
 ! A53   A(21,27,25)           108.9426                                         !
 ! A54   A(21,27,46)           109.7014                                         !
 ! A55   A(24,27,25)           107.6819                                         !
 ! A56   A(24,27,46)           112.1205                                         !
 ! A57   A(25,27,46)           106.9797                                         !
 ! A58   A(17,28,29)           105.8737                                         !
 ! A59   A(17,28,31)           109.8168                                         !
 ! A60   A(17,28,40)           108.5333                                         !
 ! A61   A(29,28,31)           115.7285                                         !
 ! A62   A(29,28,40)           109.1957                                         !
 ! A63   A(31,28,40)           107.5178                                         !
 ! A64   A(20,29,24)           117.7802                                         !
 ! A65   A(20,29,28)           122.2135                                         !
 ! A66   A(20,29,50)            96.6645                                         !
 ! A67   A(24,29,28)           109.3346                                         !
 ! A68   A(24,29,50)           101.6668                                         !
 ! A69   A(28,29,50)           104.8991                                         !
 ! A70   A(26,31,28)           112.8221                                         !
 ! A71   A(26,31,34)           107.232                                          !
 ! A72   A(26,31,48)           108.6388                                         !
 ! A73   A(28,31,34)           108.5271                                         !
 ! A74   A(28,31,48)           112.1752                                         !
 ! A75   A(34,31,48)           107.1765                                         !
 ! A76   A(22,35,32)           107.049                                          !
 ! A77   A(22,35,45)           116.5935                                         !
 ! A78   A(22,35,47)           106.7289                                         !
 ! A79   A(32,35,45)           109.9944                                         !
 ! A80   A(32,35,47)           105.8874                                         !
 ! A81   A(45,35,47)           110.0076                                         !
 ! A82   A(24,38,36)           107.8505                                         !
 ! A83   A(24,38,41)           114.3161                                         !
 ! A84   A(24,38,52)           111.9205                                         !
 ! A85   A(36,38,41)           107.2697                                         !
 ! A86   A(36,38,52)           106.6038                                         !
 ! A87   A(41,38,52)           108.4986                                         !
 ! A88   A(28,40,39)           113.005                                          !
 ! A89   A(28,40,42)           108.3227                                         !
 ! A90   A(28,40,55)           112.1487                                         !
 ! A91   A(39,40,42)           107.4795                                         !
 ! A92   A(39,40,55)           108.6321                                         !
 ! A93   A(42,40,55)           106.9751                                         !
 ! A94   A(23,43,44)           113.4599                                         !
 ! A95   A(23,43,54)           125.747                                          !
 ! A96   A(44,43,54)           120.7318                                         !
 ! A97   A(20,44,43)           116.2744                                         !
 ! A98   A(20,44,53)           121.4963                                         !
 ! A99   A(43,44,53)           122.0881                                         !
 ! A100  A(33,45,35)           112.4382                                         !
 ! A101  A(33,45,49)           108.1048                                         !
 ! A102  A(33,45,51)           107.372                                          !
 ! A103  A(35,45,49)           112.7993                                         !
 ! A104  A(35,45,51)           108.7367                                         !
 ! A105  A(49,45,51)           107.1199                                         !
 ! A106  A(29,50,53)           109.813                                          !
 ! A107  A(29,50,57)           104.3589                                         !
 ! A108  A(29,50,58)           115.021                                          !
 ! A109  A(53,50,57)           107.5388                                         !
 ! A110  A(53,50,58)           111.7632                                         !
 ! A111  A(57,50,58)           107.8058                                         !
 ! A112  A(44,53,50)           115.2937                                         !
 ! A113  A(44,53,59)           119.8999                                         !
 ! A114  A(50,53,59)           124.7991                                         !
 ! A115  A(43,54,56)           120.3551                                         !
 ! A116  A(43,54,60)           118.4058                                         !
 ! A117  A(56,54,60)           121.2359                                         !
 ! A118  A(53,59,60)           118.9717                                         !
 ! A119  A(53,59,61)           120.0818                                         !
 ! A120  A(60,59,61)           120.946                                          !
 ! A121  A(54,60,59)           119.8927                                         !
 ! A122  A(54,60,62)           120.1031                                         !
 ! A123  A(59,60,62)           120.0034                                         !
 ! A124  A(70,64,123)          108.1784                                         !
 ! A125  A(70,64,124)          112.9468                                         !
 ! A126  A(70,64,125)          113.0015                                         !
 ! A127  A(123,64,124)         107.149                                          !
 ! A128  A(123,64,125)         107.1342                                         !
 ! A129  A(124,64,125)         108.1163                                         !
 ! A130  A(21,65,72)           118.1881                                         !
 ! A131  A(9,66,69)             99.5942                                         !
 ! A132  A(9,66,126)           110.4241                                         !
 ! A133  A(69,66,126)           98.3385                                         !
 ! A134  A(5,68,78)            160.2588                                         !
 ! A135  A(78,68,121)          106.0363                                         !
 ! A136  A(64,70,80)           116.7283                                         !
 ! A137  A(64,70,126)          108.5121                                         !
 ! A138  A(64,70,127)          111.0721                                         !
 ! A139  A(80,70,126)          105.8376                                         !
 ! A140  A(80,70,127)          107.9728                                         !
 ! A141  A(126,70,127)         106.0954                                         !
 ! A142  A(25,71,72)           125.9889                                         !
 ! A143  A(65,72,71)           107.6558                                         !
 ! A144  A(65,72,74)           107.7581                                         !
 ! A145  A(65,72,82)           112.7523                                         !
 ! A146  A(71,72,74)           107.1559                                         !
 ! A147  A(71,72,82)           108.703                                          !
 ! A148  A(74,72,82)           112.56                                           !
 ! A149  A(67,75,73)           106.2846                                         !
 ! A150  A(67,75,76)           108.836                                          !
 ! A151  A(67,75,86)           112.8877                                         !
 ! A152  A(73,75,76)           108.9587                                         !
 ! A153  A(73,75,86)           110.7542                                         !
 ! A154  A(76,75,86)           109.0213                                         !
 ! A155  A(68,78,87)            94.8314                                         !
 ! A156  A(68,78,102)          107.0386                                         !
 ! A157  A(87,78,95)            91.1571                                         !
 ! A158  A(87,78,102)           80.6702                                         !
 ! A159  A(95,78,102)           95.2271                                         !
 ! A160  A(70,80,81)           108.6988                                         !
 ! A161  A(70,80,93)           111.586                                          !
 ! A162  A(81,80,93)           109.4512                                         !
 ! A163  A(77,81,80)           106.3812                                         !
 ! A164  A(77,81,88)           108.2687                                         !
 ! A165  A(77,81,101)          107.2792                                         !
 ! A166  A(80,81,88)           111.358                                          !
 ! A167  A(80,81,101)          113.3166                                         !
 ! A168  A(88,81,101)          109.972                                          !
 ! A169  A(72,82,85)           108.8023                                         !
 ! A170  A(72,82,87)           109.5808                                         !
 ! A171  A(72,82,96)           110.0182                                         !
 ! A172  A(85,82,87)           107.3143                                         !
 ! A173  A(85,82,96)           107.1189                                         !
 ! A174  A(87,82,96)           113.8386                                         !
 ! A175  A(79,85,82)           111.5734                                         !
 ! A176  A(79,85,83)           108.7137                                         !
 ! A177  A(79,85,104)          109.617                                          !
 ! A178  A(82,85,83)           107.8352                                         !
 ! A179  A(82,85,104)          111.811                                          !
 ! A180  A(83,85,104)          107.1279                                         !
 ! A181  A(75,86,87)           105.6452                                         !
 ! A182  A(75,86,89)           110.0305                                         !
 ! A183  A(75,86,98)           108.7312                                         !
 ! A184  A(87,86,89)           115.3957                                         !
 ! A185  A(87,86,98)           109.6616                                         !
 ! A186  A(89,86,98)           107.2437                                         !
 ! A187  A(78,87,82)           115.1727                                         !
 ! A188  A(78,87,86)           122.3382                                         !
 ! A189  A(78,87,108)           97.9125                                         !
 ! A190  A(82,87,86)           110.4081                                         !
 ! A191  A(82,87,108)          102.5314                                         !
 ! A192  A(86,87,108)          104.834                                          !
 ! A193  A(84,89,86)           112.9346                                         !
 ! A194  A(84,89,92)           107.1835                                         !
 ! A195  A(84,89,106)          108.7458                                         !
 ! A196  A(86,89,92)           108.2703                                         !
 ! A197  A(86,89,106)          112.2501                                         !
 ! A198  A(92,89,106)          107.1733                                         !
 ! A199  A(80,93,90)           106.6516                                         !
 ! A200  A(80,93,103)          113.35                                           !
 ! A201  A(80,93,105)          109.3658                                         !
 ! A202  A(90,93,103)          110.3677                                         !
 ! A203  A(90,93,105)          106.8656                                         !
 ! A204  A(103,93,105)         109.9916                                         !
 ! A205  A(82,96,94)           107.8638                                         !
 ! A206  A(82,96,99)           113.9419                                         !
 ! A207  A(82,96,110)          112.2087                                         !
 ! A208  A(94,96,99)           107.2598                                         !
 ! A209  A(94,96,110)          106.6359                                         !
 ! A210  A(99,96,110)          108.561                                          !
 ! A211  A(86,98,97)           113.213                                          !
 ! A212  A(86,98,100)          108.0424                                         !
 ! A213  A(86,98,113)          112.1695                                         !
 ! A214  A(97,98,100)          107.2672                                         !
 ! A215  A(97,98,113)          108.9009                                         !
 ! A216  A(100,98,113)         106.9387                                         !
 ! A217  A(81,101,102)         113.8371                                         !
 ! A218  A(81,101,112)         124.684                                          !
 ! A219  A(102,101,112)        121.4079                                         !
 ! A220  A(78,102,101)         116.5189                                         !
 ! A221  A(78,102,111)         121.0409                                         !
 ! A222  A(101,102,111)        121.0191                                         !
 ! A223  A(91,103,93)          110.9805                                         !
 ! A224  A(91,103,107)         107.9739                                         !
 ! A225  A(91,103,109)         108.063                                          !
 ! A226  A(93,103,107)         112.1984                                         !
 ! A227  A(93,103,109)         109.5084                                         !
 ! A228  A(107,103,109)        107.9815                                         !
 ! A229  A(87,108,111)         111.5578                                         !
 ! A230  A(87,108,115)         104.3541                                         !
 ! A231  A(87,108,116)         114.6479                                         !
 ! A232  A(111,108,115)        106.836                                          !
 ! A233  A(111,108,116)        111.6796                                         !
 ! A234  A(115,108,116)        107.0843                                         !
 ! A235  A(102,111,108)        116.0808                                         !
 ! A236  A(102,111,117)        120.2737                                         !
 ! A237  A(108,111,117)        123.555                                          !
 ! A238  A(101,112,114)        120.2056                                         !
 ! A239  A(101,112,118)        118.5343                                         !
 ! A240  A(114,112,118)        121.2534                                         !
 ! A241  A(111,117,118)        119.3424                                         !
 ! A242  A(111,117,119)        119.7713                                         !
 ! A243  A(118,117,119)        120.8799                                         !
 ! A244  A(112,118,117)        119.367                                          !
 ! A245  A(112,118,120)        120.3657                                         !
 ! A246  A(117,118,120)        120.2634                                         !
 ! A247  A(66,126,70)           81.1822                                         !
 ! A248  L(20,37,63,1,-1)      174.9195                                         !
 ! A249  L(68,78,95,87,-1)     185.9884                                         !
 ! A250  L(78,95,122,1,-1)     178.7758                                         !
 ! A251  L(20,37,63,1,-2)      179.063                                          !
 ! A252  L(68,78,95,87,-2)     158.3864                                         !
 ! A253  L(78,95,122,1,-2)     177.0891                                         !
 ! D1    D(1,2,10,12)          -64.5767                                         !
 ! D2    D(1,2,10,16)           54.2048                                         !
 ! D3    D(1,2,10,22)          172.2068                                         !
 ! D4    D(3,2,10,12)           54.772                                          !
 ! D5    D(3,2,10,16)          173.5534                                         !
 ! D6    D(3,2,10,22)          -68.4446                                         !
 ! D7    D(4,2,10,12)          177.5909                                         !
 ! D8    D(4,2,10,16)          -63.6277                                         !
 ! D9    D(4,2,10,22)           54.3744                                         !
 ! D10   D(68,5,13,11)         -87.6583                                         !
 ! D11   D(68,5,13,15)          27.5289                                         !
 ! D12   D(68,5,13,24)         152.468                                          !
 ! D13   D(121,5,13,11)       -140.1811                                         !
 ! D14   D(121,5,13,15)        -24.9939                                         !
 ! D15   D(121,5,13,24)         99.9452                                         !
 ! D16   D(13,5,68,78)          91.2924                                         !
 ! D17   D(20,6,8,128)         101.1242                                         !
 ! D18   D(8,6,20,29)         -113.0917                                         !
 ! D19   D(8,6,20,37)           16.6678                                         !
 ! D20   D(8,6,20,44)          166.4994                                         !
 ! D21   D(2,10,22,23)         178.5453                                         !
 ! D22   D(2,10,22,35)          55.7243                                         !
 ! D23   D(12,10,22,23)         54.7273                                         !
 ! D24   D(12,10,22,35)        -68.0938                                         !
 ! D25   D(16,10,22,23)        -61.2346                                         !
 ! D26   D(16,10,22,35)        175.9443                                         !
 ! D27   D(5,13,24,27)          67.1476                                         !
 ! D28   D(5,13,24,29)         -50.3741                                         !
 ! D29   D(5,13,24,38)        -176.153                                          !
 ! D30   D(11,13,24,27)        -52.0904                                         !
 ! D31   D(11,13,24,29)       -169.6121                                         !
 ! D32   D(11,13,24,38)         64.609                                          !
 ! D33   D(15,13,24,27)       -170.0819                                         !
 ! D34   D(15,13,24,29)         72.3965                                         !
 ! D35   D(15,13,24,38)        -53.3825                                         !
 ! D36   D(7,17,28,29)         -63.2653                                         !
 ! D37   D(7,17,28,31)          62.3399                                         !
 ! D38   D(7,17,28,40)         179.6146                                         !
 ! D39   D(14,17,28,29)         56.9944                                         !
 ! D40   D(14,17,28,31)       -177.4004                                         !
 ! D41   D(14,17,28,40)        -60.1257                                         !
 ! D42   D(18,17,28,29)        176.9599                                         !
 ! D43   D(18,17,28,31)        -57.4349                                         !
 ! D44   D(18,17,28,40)         59.8397                                         !
 ! D45   D(6,20,29,24)         -17.3246                                         !
 ! D46   D(6,20,29,28)         123.4093                                         !
 ! D47   D(6,20,29,50)        -124.2827                                         !
 ! D48   D(37,20,29,24)        175.0441                                         !
 ! D49   D(37,20,29,28)        -44.2219                                         !
 ! D50   D(37,20,29,50)         68.086                                          !
 ! D51   D(44,20,29,24)         76.2987                                         !
 ! D52   D(44,20,29,28)       -142.9674                                         !
 ! D53   D(44,20,29,50)        -30.6595                                         !
 ! D54   D(6,20,44,43)         -63.4215                                         !
 ! D55   D(6,20,44,53)         120.8128                                         !
 ! D56   D(29,20,44,43)       -159.2552                                         !
 ! D57   D(29,20,44,53)         24.9791                                         !
 ! D58   D(37,20,44,43)        108.4402                                         !
 ! D59   D(37,20,44,53)        -67.3255                                         !
 ! D60   D(65,21,27,24)         74.5508                                         !
 ! D61   D(65,21,27,25)        -44.0085                                         !
 ! D62   D(65,21,27,46)       -160.8066                                         !
 ! D63   D(27,21,65,72)         61.3921                                         !
 ! D64   D(10,22,23,19)         53.443                                          !
 ! D65   D(10,22,23,30)        -64.678                                          !
 ! D66   D(10,22,23,43)        169.8122                                         !
 ! D67   D(35,22,23,19)        177.3786                                         !
 ! D68   D(35,22,23,30)         59.2575                                         !
 ! D69   D(35,22,23,43)        -66.2522                                         !
 ! D70   D(10,22,35,32)        -66.5975                                         !
 ! D71   D(10,22,35,45)         57.0089                                         !
 ! D72   D(10,22,35,47)       -179.6239                                         !
 ! D73   D(23,22,35,32)        172.4456                                         !
 ! D74   D(23,22,35,45)        -63.9481                                         !
 ! D75   D(23,22,35,47)         59.4191                                         !
 ! D76   D(19,23,43,44)         72.3373                                         !
 ! D77   D(19,23,43,54)       -104.8152                                         !
 ! D78   D(22,23,43,44)        -42.4285                                         !
 ! D79   D(22,23,43,54)        140.4191                                         !
 ! D80   D(30,23,43,44)       -168.3904                                         !
 ! D81   D(30,23,43,54)         14.4571                                         !
 ! D82   D(13,24,27,21)        -60.2834                                         !
 ! D83   D(13,24,27,25)         59.0306                                         !
 ! D84   D(13,24,27,46)        176.4467                                         !
 ! D85   D(29,24,27,21)         57.9152                                         !
 ! D86   D(29,24,27,25)        177.2293                                         !
 ! D87   D(29,24,27,46)        -65.3547                                         !
 ! D88   D(38,24,27,21)       -179.1463                                         !
 ! D89   D(38,24,27,25)        -59.8323                                         !
 ! D90   D(38,24,27,46)         57.5838                                         !
 ! D91   D(13,24,29,20)         88.4945                                         !
 ! D92   D(13,24,29,28)        -56.9293                                         !
 ! D93   D(13,24,29,50)       -167.4585                                         !
 ! D94   D(27,24,29,20)        -29.1439                                         !
 ! D95   D(27,24,29,28)       -174.5677                                         !
 ! D96   D(27,24,29,50)         74.9031                                         !
 ! D97   D(38,24,29,20)       -147.7802                                         !
 ! D98   D(38,24,29,28)         66.796                                          !
 ! D99   D(38,24,29,50)        -43.7332                                         !
 ! D100  D(13,24,38,36)        -56.6348                                         !
 ! D101  D(13,24,38,41)         62.5587                                         !
 ! D102  D(13,24,38,52)       -173.5834                                         !
 ! D103  D(27,24,38,36)         60.9257                                         !
 ! D104  D(27,24,38,41)       -179.8808                                         !
 ! D105  D(27,24,38,52)        -56.0229                                         !
 ! D106  D(29,24,38,36)       -179.7513                                         !
 ! D107  D(29,24,38,41)        -60.5578                                         !
 ! D108  D(29,24,38,52)         63.3001                                         !
 ! D109  D(71,25,27,21)         19.7251                                         !
 ! D110  D(71,25,27,24)       -101.0524                                         !
 ! D111  D(71,25,27,46)        138.2449                                         !
 ! D112  D(27,25,71,72)         -5.6745                                         !
 ! D113  D(17,28,29,20)        -56.182                                          !
 ! D114  D(17,28,29,24)         87.4163                                         !
 ! D115  D(17,28,29,50)       -164.2159                                         !
 ! D116  D(31,28,29,20)       -178.0706                                         !
 ! D117  D(31,28,29,24)        -34.4723                                         !
 ! D118  D(31,28,29,50)         73.8956                                         !
 ! D119  D(40,28,29,20)         60.492                                          !
 ! D120  D(40,28,29,24)       -155.9097                                         !
 ! D121  D(40,28,29,50)        -47.5418                                         !
 ! D122  D(17,28,31,26)        -55.4784                                         !
 ! D123  D(17,28,31,34)         63.2067                                         !
 ! D124  D(17,28,31,48)       -178.5688                                         !
 ! D125  D(29,28,31,26)         64.2822                                         !
 ! D126  D(29,28,31,34)       -177.0327                                         !
 ! D127  D(29,28,31,48)        -58.8083                                         !
 ! D128  D(40,28,31,26)       -173.3854                                         !
 ! D129  D(40,28,31,34)        -54.7003                                         !
 ! D130  D(40,28,31,48)         63.5242                                         !
 ! D131  D(17,28,40,39)         62.2774                                         !
 ! D132  D(17,28,40,42)        -56.6922                                         !
 ! D133  D(17,28,40,55)       -174.5222                                         !
 ! D134  D(29,28,40,39)        -52.6948                                         !
 ! D135  D(29,28,40,42)       -171.6644                                         !
 ! D136  D(29,28,40,55)         70.5057                                         !
 ! D137  D(31,28,40,39)       -178.9874                                         !
 ! D138  D(31,28,40,42)         62.043                                          !
 ! D139  D(31,28,40,55)        -55.787                                          !
 ! D140  D(20,29,50,53)         40.7158                                         !
 ! D141  D(20,29,50,57)        -74.3001                                         !
 ! D142  D(20,29,50,58)        167.8065                                         !
 ! D143  D(24,29,50,53)        -79.5013                                         !
 ! D144  D(24,29,50,57)        165.4828                                         !
 ! D145  D(24,29,50,58)         47.5894                                         !
 ! D146  D(28,29,50,53)        166.6221                                         !
 ! D147  D(28,29,50,57)         51.6062                                         !
 ! D148  D(28,29,50,58)        -66.2872                                         !
 ! D149  D(22,35,45,33)        -61.4128                                         !
 ! D150  D(22,35,45,49)         61.1543                                         !
 ! D151  D(22,35,45,51)        179.8248                                         !
 ! D152  D(32,35,45,33)         60.6645                                         !
 ! D153  D(32,35,45,49)       -176.7683                                         !
 ! D154  D(32,35,45,51)        -58.0979                                         !
 ! D155  D(47,35,45,33)        176.9283                                         !
 ! D156  D(47,35,45,49)        -60.5045                                         !
 ! D157  D(47,35,45,51)         58.1659                                         !
 ! D158  D(23,43,44,20)          6.9792                                         !
 ! D159  D(23,43,44,53)       -177.2823                                         !
 ! D160  D(54,43,44,20)       -175.7093                                         !
 ! D161  D(54,43,44,53)          0.0292                                         !
 ! D162  D(23,43,54,56)         -3.2274                                         !
 ! D163  D(23,43,54,60)        176.1233                                         !
 ! D164  D(44,43,54,56)        179.8117                                         !
 ! D165  D(44,43,54,60)         -0.8376                                         !
 ! D166  D(20,44,53,50)         -2.7315                                         !
 ! D167  D(20,44,53,59)        176.327                                          !
 ! D168  D(43,44,53,50)       -178.2495                                         !
 ! D169  D(43,44,53,59)          0.809                                          !
 ! D170  D(29,50,53,44)        -28.0727                                         !
 ! D171  D(29,50,53,59)        152.9212                                         !
 ! D172  D(57,50,53,44)         84.9013                                         !
 ! D173  D(57,50,53,59)        -94.1048                                         !
 ! D174  D(58,50,53,44)       -156.968                                          !
 ! D175  D(58,50,53,59)         24.026                                          !
 ! D176  D(44,53,59,60)         -0.8081                                         !
 ! D177  D(44,53,59,61)        179.4322                                         !
 ! D178  D(50,53,59,60)        178.1553                                         !
 ! D179  D(50,53,59,61)         -1.6044                                         !
 ! D180  D(43,54,60,59)          0.8059                                         !
 ! D181  D(43,54,60,62)       -179.5085                                         !
 ! D182  D(56,54,60,59)       -179.8494                                         !
 ! D183  D(56,54,60,62)         -0.1638                                         !
 ! D184  D(53,59,60,54)         -0.003                                          !
 ! D185  D(53,59,60,62)       -179.6889                                         !
 ! D186  D(61,59,60,54)        179.7545                                         !
 ! D187  D(61,59,60,62)          0.0687                                         !
 ! D188  D(123,64,70,80)      -177.7997                                         !
 ! D189  D(123,64,70,126)      -58.4037                                         !
 ! D190  D(123,64,70,127)       57.849                                          !
 ! D191  D(124,64,70,80)        63.7733                                         !
 ! D192  D(124,64,70,126)     -176.8307                                         !
 ! D193  D(124,64,70,127)      -60.578                                          !
 ! D194  D(125,64,70,80)       -59.358                                          !
 ! D195  D(125,64,70,126)       60.038                                          !
 ! D196  D(125,64,70,127)      176.2906                                         !
 ! D197  D(21,65,72,71)        -30.0724                                         !
 ! D198  D(21,65,72,74)         85.2034                                         !
 ! D199  D(21,65,72,82)       -149.9662                                         !
 ! D200  D(9,66,69,126)       -112.487                                          !
 ! D201  D(9,66,126,70)       -137.1589                                         !
 ! D202  D(69,66,126,70)       119.289                                          !
 ! D203  D(5,68,78,87)          23.5106                                         !
 ! D204  D(5,68,78,102)        -58.195                                          !
 ! D205  D(121,68,78,87)      -159.6769                                         !
 ! D206  D(121,68,78,102)      118.6176                                         !
 ! D207  D(64,70,80,81)         66.8736                                         !
 ! D208  D(64,70,80,93)        -53.9225                                         !
 ! D209  D(126,70,80,81)       -53.9481                                         !
 ! D210  D(126,70,80,93)      -174.7442                                         !
 ! D211  D(127,70,80,81)      -167.2131                                         !
 ! D212  D(127,70,80,93)        71.9908                                         !
 ! D213  D(64,70,126,66)       123.9942                                         !
 ! D214  D(80,70,126,66)      -109.9905                                         !
 ! D215  D(127,70,126,66)        4.5718                                         !
 ! D216  D(25,71,72,65)         18.4574                                         !
 ! D217  D(25,71,72,74)        -97.2159                                         !
 ! D218  D(25,71,72,82)        140.8859                                         !
 ! D219  D(65,72,82,85)         63.4096                                         !
 ! D220  D(65,72,82,87)        -53.6423                                         !
 ! D221  D(65,72,82,96)       -179.5263                                         !
 ! D222  D(71,72,82,85)        -55.8787                                         !
 ! D223  D(71,72,82,87)       -172.9305                                         !
 ! D224  D(71,72,82,96)         61.1855                                         !
 ! D225  D(74,72,82,85)       -174.4247                                         !
 ! D226  D(74,72,82,87)         68.5234                                         !
 ! D227  D(74,72,82,96)        -57.3606                                         !
 ! D228  D(67,75,86,87)        -59.0833                                         !
 ! D229  D(67,75,86,89)         66.0965                                         !
 ! D230  D(67,75,86,98)       -176.7233                                         !
 ! D231  D(73,75,86,87)         59.96                                           !
 ! D232  D(73,75,86,89)       -174.8602                                         !
 ! D233  D(73,75,86,98)        -57.6799                                         !
 ! D234  D(76,75,86,87)        179.8369                                         !
 ! D235  D(76,75,86,89)        -54.9833                                         !
 ! D236  D(76,75,86,98)         62.1969                                         !
 ! D237  D(68,78,87,82)        -26.3312                                         !
 ! D238  D(68,78,87,86)        112.5695                                         !
 ! D239  D(68,78,87,108)      -134.2319                                         !
 ! D240  D(95,78,87,82)        175.2824                                         !
 ! D241  D(95,78,87,86)        -45.817                                          !
 ! D242  D(95,78,87,108)        67.3816                                         !
 ! D243  D(102,78,87,82)        80.1748                                         !
 ! D244  D(102,78,87,86)      -140.9245                                         !
 ! D245  D(102,78,87,108)      -27.7259                                         !
 ! D246  D(68,78,102,101)      -75.5273                                         !
 ! D247  D(68,78,102,111)      117.9443                                         !
 ! D248  D(87,78,102,101)     -167.7579                                         !
 ! D249  D(87,78,102,111)       25.7137                                         !
 ! D250  D(95,78,102,101)      101.9259                                         !
 ! D251  D(95,78,102,111)      -64.6025                                         !
 ! D252  D(70,80,81,77)         47.9219                                         !
 ! D253  D(70,80,81,88)        -69.8391                                         !
 ! D254  D(70,80,81,101)       165.5563                                         !
 ! D255  D(93,80,81,77)        170.0245                                         !
 ! D256  D(93,80,81,88)         52.2635                                         !
 ! D257  D(93,80,81,101)       -72.3412                                         !
 ! D258  D(70,80,93,90)       -175.1932                                         !
 ! D259  D(70,80,93,103)       -53.5381                                         !
 ! D260  D(70,80,93,105)        69.5856                                         !
 ! D261  D(81,80,93,90)         64.451                                          !
 ! D262  D(81,80,93,103)      -173.8939                                         !
 ! D263  D(81,80,93,105)       -50.7702                                         !
 ! D264  D(77,81,101,102)       73.0526                                         !
 ! D265  D(77,81,101,112)     -103.9097                                         !
 ! D266  D(80,81,101,102)      -44.0571                                         !
 ! D267  D(80,81,101,112)      138.9806                                         !
 ! D268  D(88,81,101,102)     -169.409                                          !
 ! D269  D(88,81,101,112)       13.6287                                         !
 ! D270  D(72,82,85,79)        -60.8627                                         !
 ! D271  D(72,82,85,83)         58.4542                                         !
 ! D272  D(72,82,85,104)       175.9697                                         !
 ! D273  D(87,82,85,79)         57.6251                                         !
 ! D274  D(87,82,85,83)        176.942                                          !
 ! D275  D(87,82,85,104)       -65.5426                                         !
 ! D276  D(96,82,85,79)       -179.7603                                         !
 ! D277  D(96,82,85,83)        -60.4433                                         !
 ! D278  D(96,82,85,104)        57.0721                                         !
 ! D279  D(72,82,87,78)         85.1728                                         !
 ! D280  D(72,82,87,86)        -58.4848                                         !
 ! D281  D(72,82,87,108)      -169.7404                                         !
 ! D282  D(85,82,87,78)        -32.8103                                         !
 ! D283  D(85,82,87,86)       -176.4679                                         !
 ! D284  D(85,82,87,108)        72.2765                                         !
 ! D285  D(96,82,87,78)       -151.1585                                         !
 ! D286  D(96,82,87,86)         65.1839                                         !
 ! D287  D(96,82,87,108)       -46.0717                                         !
 ! D288  D(72,82,96,94)        -58.8965                                         !
 ! D289  D(72,82,96,99)         60.0626                                         !
 ! D290  D(72,82,96,110)      -176.0565                                         !
 ! D291  D(85,82,96,94)         59.212                                          !
 ! D292  D(85,82,96,99)        178.1712                                         !
 ! D293  D(85,82,96,110)       -57.9479                                         !
 ! D294  D(87,82,96,94)        177.6722                                         !
 ! D295  D(87,82,96,99)        -63.3686                                         !
 ! D296  D(87,82,96,110)        60.5122                                         !
 ! D297  D(75,86,87,78)        -48.2458                                         !
 ! D298  D(75,86,87,82)         92.3506                                         !
 ! D299  D(75,86,87,108)      -157.8928                                         !
 ! D300  D(89,86,87,78)       -170.0287                                         !
 ! D301  D(89,86,87,82)        -29.4324                                         !
 ! D302  D(89,86,87,108)        80.3243                                         !
 ! D303  D(98,86,87,78)         68.7673                                         !
 ! D304  D(98,86,87,82)       -150.6363                                         !
 ! D305  D(98,86,87,108)       -40.8797                                         !
 ! D306  D(75,86,89,84)        -56.3436                                         !
 ! D307  D(75,86,89,92)         62.1796                                         !
 ! D308  D(75,86,89,106)      -179.72                                           !
 ! D309  D(87,86,89,84)         63.0513                                         !
 ! D310  D(87,86,89,92)       -178.4254                                         !
 ! D311  D(87,86,89,106)       -60.325                                          !
 ! D312  D(98,86,89,84)       -174.4461                                         !
 ! D313  D(98,86,89,92)        -55.9228                                         !
 ! D314  D(98,86,89,106)        62.1776                                         !
 ! D315  D(75,86,98,97)         63.8199                                         !
 ! D316  D(75,86,98,100)       -54.8248                                         !
 ! D317  D(75,86,98,113)      -172.4448                                         !
 ! D318  D(87,86,98,97)        -51.2388                                         !
 ! D319  D(87,86,98,100)      -169.8835                                         !
 ! D320  D(87,86,98,113)        72.4964                                         !
 ! D321  D(89,86,98,97)       -177.2366                                         !
 ! D322  D(89,86,98,100)        64.1187                                         !
 ! D323  D(89,86,98,113)       -53.5013                                         !
 ! D324  D(78,87,108,111)       34.108                                          !
 ! D325  D(78,87,108,115)      -80.888                                          !
 ! D326  D(78,87,108,116)      162.3                                            !
 ! D327  D(82,87,108,111)      -83.9788                                         !
 ! D328  D(82,87,108,115)      161.0252                                         !
 ! D329  D(82,87,108,116)       44.2131                                         !
 ! D330  D(86,87,108,111)      160.6553                                         !
 ! D331  D(86,87,108,115)       45.6593                                         !
 ! D332  D(86,87,108,116)      -71.1527                                         !
 ! D333  D(80,93,103,91)       -46.6155                                         !
 ! D334  D(80,93,103,107)       74.2772                                         !
 ! D335  D(80,93,103,109)     -165.8353                                         !
 ! D336  D(90,93,103,91)        72.9357                                         !
 ! D337  D(90,93,103,107)     -166.1716                                         !
 ! D338  D(90,93,103,109)      -46.2841                                         !
 ! D339  D(105,93,103,91)     -169.3939                                         !
 ! D340  D(105,93,103,107)     -48.5012                                         !
 ! D341  D(105,93,103,109)      71.3863                                         !
 ! D342  D(81,101,102,78)       15.9778                                         !
 ! D343  D(81,101,102,111)    -177.4906                                         !
 ! D344  D(112,101,102,78)    -166.9488                                         !
 ! D345  D(112,101,102,111)     -0.4173                                         !
 ! D346  D(81,101,112,114)      -3.8688                                         !
 ! D347  D(81,101,112,118)     175.2002                                         !
 ! D348  D(102,101,112,114)    179.387                                          !
 ! D349  D(102,101,112,118)     -1.5439                                         !
 ! D350  D(78,102,111,108)      -8.4691                                         !
 ! D351  D(78,102,111,117)     168.1917                                         !
 ! D352  D(101,102,111,108)   -174.3915                                         !
 ! D353  D(101,102,111,117)      2.2694                                         !
 ! D354  D(87,108,111,102)     -19.8706                                         !
 ! D355  D(87,108,111,117)     163.5899                                         !
 ! D356  D(115,108,111,102)     93.5857                                         !
 ! D357  D(115,108,111,117)    -82.9537                                         !
 ! D358  D(116,108,111,102)   -149.6325                                         !
 ! D359  D(116,108,111,117)     33.8281                                         !
 ! D360  D(102,111,117,118)     -2.1153                                         !
 ! D361  D(102,111,117,119)    178.798                                          !
 ! D362  D(108,111,117,118)    174.2855                                         !
 ! D363  D(108,111,117,119)     -4.8012                                         !
 ! D364  D(101,112,118,117)      1.6268                                         !
 ! D365  D(101,112,118,120)   -179.089                                          !
 ! D366  D(114,112,118,117)   -179.3143                                         !
 ! D367  D(114,112,118,120)     -0.0302                                         !
 ! D368  D(111,117,118,112)      0.1486                                         !
 ! D369  D(111,117,118,120)   -179.1363                                         !
 ! D370  D(119,117,118,112)    179.2249                                         !
 ! D371  D(119,117,118,120)     -0.06                                           !
 --------------------------------------------------------------------------------
 Stoichiometry    C40H74N4O6P2Ru2(3)
 Framework group  C1[X(C40H74N4O6P2Ru2)]
 Deg. of freedom   378
 Full point group                 C1      NOp   1
 Largest Abelian subgroup         C1      NOp   1
 Largest concise Abelian subgroup C1      NOp   1
                         Standard orientation:                         
 ---------------------------------------------------------------------
 Center     Atomic      Atomic             Coordinates (Angstroms)
 Number     Number       Type             X           Y           Z
 ---------------------------------------------------------------------
      1          1           0       -0.896634    2.642960    3.714607
      2          6           0       -1.820509    2.116444    3.433224
      3          1           0       -2.520551    2.201599    4.278641
      4          1           0       -1.561646    1.057568    3.290413
      5          1           0       -0.287676   -1.170467   -1.923574
      6          8           0       -1.547929    1.149401   -0.368047
      7          1           0       -0.465054   -3.212523   -0.627480
      8          8           0       -0.384950    1.092686    0.488596
      9          1           0       -1.305707   -1.134138    2.371142
     10          6           0       -2.356896    2.723040    2.155473
     11          1           0       -0.427618   -1.229310   -3.695801
     12          1           0       -2.653934    3.776876    2.324402
     13          6           0       -0.842007   -1.631735   -2.755721
     14          1           0       -1.181920   -2.886589    0.960286
     15          1           0       -0.635092   -2.712397   -2.752443
     16          1           0       -1.574188    2.710335    1.386211
     17          6           0       -1.230787   -3.549767    0.084707
     18          1           0       -0.974291   -4.574574    0.403761
     19          1           0       -3.021543    2.812090   -0.249337
     20         44           0       -2.935060   -0.052551    0.622606
     21          1           0       -2.026962    0.777018   -2.207124
     22          7           0       -3.498818    1.981430    1.575449
     23          6           0       -3.934575    2.705224    0.361428
     24          6           0       -2.340212   -1.328584   -2.711504
     25          1           0       -2.102285    0.400600   -3.958473
     26          1           0       -1.914279   -4.322144   -2.464861
     27          6           0       -2.536411    0.171154   -2.969950
     28          6           0       -2.632044   -3.547133   -0.535221
     29         15           0       -3.011587   -1.724727   -0.960463
     30          1           0       -4.328244    3.708246    0.598317
     31          6           0       -2.681720   -4.525911   -1.707328
     32          1           0       -4.267393    1.162528    3.332437
     33          1           0       -4.467177    3.664879    3.698537
     34          1           0       -2.498818   -5.543599   -1.322257
     35          6           0       -4.620932    1.818993    2.527452
     36          1           0       -2.602174   -1.778736   -4.792104
     37          6           0       -3.826320   -1.035273    1.882545
     38          6           0       -3.066706   -2.073532   -3.835776
     39          1           0       -3.680050   -3.384622    1.395449
     40          6           0       -3.629922   -4.036709    0.516211
     41          1           0       -3.004934   -3.164876   -3.767071
     42          1           0       -3.308841   -5.033841    0.861175
     43          6           0       -4.925282    1.910265   -0.439370
     44          7           0       -4.608247    0.613005   -0.543718
     45          6           0       -5.205378    3.094698    3.115391
     46          1           0       -3.600016    0.448197   -3.014067
     47          1           0       -5.404048    1.254279    2.000429
     48          1           0       -3.666509   -4.536334   -2.198297
     49          1           0       -5.626427    3.763389    2.349443
     50          6           0       -4.874917   -1.671255   -1.245376
     51          1           0       -6.026065    2.825961    3.797307
     52          1           0       -4.127263   -1.787214   -3.899916
     53          6           0       -5.345742   -0.245857   -1.266679
     54          6           0       -6.045787    2.422060   -1.084478
     55          1           0       -4.644386   -4.150387    0.104380
     56          1           0       -6.299980    3.478959   -0.992802
     57          1           0       -5.302524   -2.149064   -0.348357
     58          1           0       -5.227028   -2.229856   -2.123860
     59          6           0       -6.472052    0.210339   -1.951575
     60          6           0       -6.820624    1.555876   -1.856532
     61          1           0       -7.067833   -0.482766   -2.547098
     62          1           0       -7.701647    1.929927   -2.381453
     63          8           0       -4.366850   -1.594298    2.761993
     64          6           0        2.251669   -4.293088    2.277548
     65          1           0        0.395835    1.339423   -1.784861
     66          8           0       -0.366530   -0.905908    2.488398
     67          1           0        0.737811    3.274010   -0.090125
     68          8           0        1.226089   -0.752209   -0.354289
     69          1           0       -0.310085   -0.130108    1.886961
     70          6           0        2.072815   -2.874842    1.754615
     71          1           0        0.506806    1.610814   -3.535870
     72          6           0        0.943194    1.886731   -2.560956
     73          1           0        1.646149    2.936775    1.376939
     74          1           0        0.752938    2.959085   -2.412399
     75          6           0        1.588822    3.615333    0.513888
     76          1           0        1.382446    4.637564    0.874638
     77          1           0        3.159705   -2.929641   -0.493435
     78         44           0        2.956888    0.028273    0.594413
     79          1           0        2.120875   -0.580006   -2.187379
     80          7           0        3.309177   -2.126482    1.419078
     81          6           0        3.953992   -2.773273    0.254597
     82          6           0        2.435509    1.552633   -2.579450
     83          1           0        2.133589   -0.103879   -3.911909
[...]
  Beta virt. eigenvalues --    5.17887   5.18304   5.18857   5.19058   5.19607
  Beta virt. eigenvalues --    5.19776   5.19904   5.20329   5.20679   5.20897
  Beta virt. eigenvalues --    5.21225   5.21575   5.22057   5.22297   5.22513
  Beta virt. eigenvalues --    5.23116   5.23472   5.23605   5.23825   5.23998
  Beta virt. eigenvalues --    5.24311   5.24499   5.24856   5.25067   5.25396
  Beta virt. eigenvalues --    5.25700   5.25862   5.26415   5.26768   5.26933
  Beta virt. eigenvalues --    5.27283   5.27391   5.27723   5.27939   5.28493
  Beta virt. eigenvalues --    5.28682   5.29058   5.29126   5.29586   5.30089
  Beta virt. eigenvalues --    5.30234   5.30393   5.30844   5.30949   5.31484
  Beta virt. eigenvalues --    5.31592   5.32132   5.32449   5.33003   5.33094
  Beta virt. eigenvalues --    5.33930   5.34379   5.34764   5.35059   5.35097
  Beta virt. eigenvalues --    5.35249   5.35915   5.36239   5.36455   5.36617
  Beta virt. eigenvalues --    5.36854   5.37222   5.37420   5.37716   5.37865
  Beta virt. eigenvalues --    5.37928   5.38149   5.38488   5.38575   5.38873
  Beta virt. eigenvalues --    5.39024   5.39330   5.39650   5.39847   5.40311
  Beta virt. eigenvalues --    5.40468   5.40891   5.41148   5.41268   5.41321
  Beta virt. eigenvalues --    5.41611   5.41869   5.41911   5.42474   5.42749
  Beta virt. eigenvalues --    5.42791   5.43118   5.43420   5.43709   5.44149
  Beta virt. eigenvalues --    5.44178   5.44549   5.44908   5.45202   5.45481
  Beta virt. eigenvalues --    5.45643   5.46005   5.46336   5.46593   5.46877
  Beta virt. eigenvalues --    5.47068   5.47287   5.47713   5.48419   5.48780
  Beta virt. eigenvalues --    5.49356   5.49574   5.49691   5.50285   5.50514
  Beta virt. eigenvalues --    5.50800   5.50987   5.51059   5.51474   5.51658
  Beta virt. eigenvalues --    5.52210   5.52484   5.52693   5.52858   5.53536
  Beta virt. eigenvalues --    5.53712   5.53787   5.53974   5.54666   5.54976
  Beta virt. eigenvalues --    5.55461   5.55719   5.55999   5.56258   5.56812
  Beta virt. eigenvalues --    5.57263   5.57664   5.57805   5.58325   5.58467
  Beta virt. eigenvalues --    5.59089   5.59539   5.59811   5.60225   5.60553
  Beta virt. eigenvalues --    5.60705   5.61032   5.61385   5.62201   5.62240
  Beta virt. eigenvalues --    5.62680   5.63544   5.64598   5.64861   5.65815
  Beta virt. eigenvalues --    5.66254   5.67111   5.67594   5.67705   5.68456
  Beta virt. eigenvalues --    5.69070   5.69635   5.71945   5.72409   5.73080
  Beta virt. eigenvalues --    5.73598   5.74701   5.78416   5.79362   5.80555
  Beta virt. eigenvalues --    5.81751   5.86426   5.87858   5.87988   5.88758
  Beta virt. eigenvalues --    5.89057   5.91284   5.92252   5.93647   5.95094
  Beta virt. eigenvalues --    5.98381   5.98754   5.99609   5.99809   6.00492
  Beta virt. eigenvalues --    6.01143   6.01410   6.01744   6.01850   6.02307
  Beta virt. eigenvalues --    6.02630   6.02925   6.03484   6.03905   6.04038
  Beta virt. eigenvalues --    6.04767   6.05195   6.05942   6.06229   6.06629
  Beta virt. eigenvalues --    6.07087   6.07400   6.07597   6.07700   6.08836
  Beta virt. eigenvalues --    6.09821   6.09972   6.10517   6.11314   6.11596
  Beta virt. eigenvalues --    6.12277   6.12504   6.12707   6.13128   6.13529
  Beta virt. eigenvalues --    6.13759   6.15586   6.16601   6.17677   6.18287
  Beta virt. eigenvalues --    6.18769   6.19294   6.19496   6.20426   6.21320
  Beta virt. eigenvalues --    6.21869   6.22329   6.23249   6.24574   6.25042
  Beta virt. eigenvalues --    6.25700   6.25914   6.26714   6.28445   6.29330
  Beta virt. eigenvalues --    6.31038   6.31522   6.32247   6.34298   6.34461
  Beta virt. eigenvalues --    6.35114   6.36199   6.36585   6.40345   6.41363
  Beta virt. eigenvalues --    6.41758   6.42401   6.44672   6.46427   6.47926
  Beta virt. eigenvalues --    6.49774   6.52261   6.56556   6.58660   6.61349
  Beta virt. eigenvalues --    6.64121   6.67053   6.67856   6.69147   6.70771
  Beta virt. eigenvalues --    6.71331   6.76041   6.79096   6.79705   6.80485
  Beta virt. eigenvalues --    6.82426   6.83501   6.85803   6.87305   6.87696
  Beta virt. eigenvalues --    6.93316   6.94420   6.96704   6.98406   7.03070
  Beta virt. eigenvalues --    7.07649   7.08228   7.08611   7.13639   7.16709
  Beta virt. eigenvalues --    7.23786   7.27965   7.40053   7.42419   7.48165
  Beta virt. eigenvalues --    7.73630   7.92741   8.01145   8.55253   8.64387
  Beta virt. eigenvalues --    9.78471   9.83287   9.99486  10.02366  10.09511
  Beta virt. eigenvalues --   10.17423  10.76041  10.81119  10.87646  12.24359
  Beta virt. eigenvalues --   12.25312  12.30008  12.39296  12.45380  12.69330
  Beta virt. eigenvalues --   12.78211  12.79809  12.92336  12.99935  13.06617
  Beta virt. eigenvalues --   13.15292  13.26003  13.26921  13.27849  13.33093
  Beta virt. eigenvalues --   13.42587  13.45294  13.51473  13.54380  13.59654
  Beta virt. eigenvalues --   13.62072  13.66748  13.67437  13.70221  13.80059
  Beta virt. eigenvalues --   13.83766  13.87120  13.89061  13.94169  13.97249
  Beta virt. eigenvalues --   14.00193  14.03597  14.14177  14.18223  14.28888
  Beta virt. eigenvalues --   14.34980  15.08191  15.08306  35.54296  35.55555
  Beta virt. eigenvalues --   35.63367  35.68985  35.72416  35.75790  46.29123
  Beta virt. eigenvalues --   46.36620
          Condensed to atoms (all electrons):
          Atomic-Atomic Spin Densities.
 Mulliken charges and spin densities:
               1          2
     1  H    0.123099   0.000517
     2  C   -0.357691   0.000772
     3  H    0.116804   0.000031
     4  H    0.108386   0.002680
     5  H    0.107423  -0.000881
     6  O   -0.547289   0.004853
     7  H    0.125446   0.000268
     8  O   -0.374482   0.020012
     9  H    0.278768   0.019007
    10  C   -0.133890  -0.001021
    11  H    0.106872   0.000040
    12  H    0.116666  -0.000077
    13  C   -0.374055   0.000082
    14  H    0.115118  -0.004173
    15  H    0.123654   0.000007
    16  H    0.160750   0.000045
    17  C   -0.343940   0.002548
    18  H    0.111259   0.001077
    19  H    0.173063  -0.000106
    20  Ru   0.723635   0.905530
    21  H    0.160708  -0.000233
    22  N   -0.222838  -0.004957
    23  C   -0.138704   0.002941
    24  C    0.032914  -0.003912
    25  H    0.107259  -0.000028
    26  H    0.117750   0.000050
    27  C   -0.413592   0.000702
    28  C    0.004135  -0.002876
    29  P    0.054188  -0.015633
    30  H    0.127379  -0.000749
    31  C   -0.334215  -0.000331
    32  H    0.132107  -0.000554
    33  H    0.111792  -0.000021
    34  H    0.107415   0.000075
    35  C   -0.120814  -0.000622
    36  H    0.106029  -0.000376
    37  C   -0.253710  -0.013832
    38  C   -0.341867  -0.000150
    39  H    0.144452  -0.001719
    40  C   -0.373341   0.000223
    41  H    0.123152  -0.000007
    42  H    0.108860  -0.000092
    43  C    0.117255  -0.001246
    44  N   -0.176015   0.061150
    45  C   -0.329150   0.000041
    46  H    0.124776  -0.000255
    47  H    0.141880   0.000376
    48  H    0.113005   0.000017
    49  H    0.110993   0.000052
    50  C   -0.236021  -0.000584
    51  H    0.117166   0.000064
    52  H    0.111742  -0.000016
    53  C    0.025286   0.002182
    54  C   -0.159794   0.003995
    55  H    0.116796  -0.000055
    56  H    0.161022   0.001699
    57  H    0.164847  -0.000324
    58  H    0.138044  -0.001073
    59  C   -0.128829   0.002664
    60  C   -0.144981   0.000192
    61  H    0.161033   0.001455
    62  H    0.161304  -0.000160
    63  O   -0.339791   0.007475
    64  C   -0.330740   0.000173
    65  H    0.101519  -0.000173
    66  O   -0.550793   0.022383
    67  H    0.129691  -0.000635
    68  O   -0.818257   0.011069
    69  H    0.315424  -0.010786
    70  C   -0.129130  -0.001004
    71  H    0.111065   0.000179
    72  C   -0.365008   0.000230
    73  H    0.123127  -0.002039
    74  H    0.129222   0.000009
    75  C   -0.354046   0.002850
    76  H    0.109088   0.001204
    77  H    0.162817   0.000356
    78  Ru   0.751019   0.964383
    79  H    0.149398   0.000295
    80  N   -0.248049  -0.007009
    81  C   -0.096903   0.001635
    82  C    0.038746  -0.003600
    83  H    0.111225  -0.000006
    84  H    0.118730   0.000051
    85  C   -0.408019   0.001677
    86  C    0.009799  -0.002491
    87  P    0.026574  -0.020783
    88  H    0.128198  -0.000518
    89  C   -0.333126  -0.000523
    90  H    0.150077  -0.000165
    91  H    0.129178  -0.002759
    92  H    0.106949   0.000011
    93  C   -0.123331  -0.000235
    94  H    0.106896  -0.000467
    95  C   -0.216555  -0.029689
    96  C   -0.340269  -0.000352
    97  H    0.139955  -0.000705
    98  C   -0.370093   0.000546
    99  H    0.121647   0.000034
   100  H    0.107852  -0.000137
   101  C    0.089755   0.019004
   102  N   -0.196150   0.054588
   103  C   -0.346187   0.002984
   104  H    0.125821  -0.000158
   105  H    0.116738  -0.000351
   106  H    0.112016   0.000072
   107  H    0.119524   0.000152
   108  C   -0.228103  -0.000452
   109  H    0.125995   0.000125
   110  H    0.113655   0.000030
   111  C    0.065643   0.017658
   112  C   -0.162536  -0.006559
   113  H    0.112878  -0.000061
   114  H    0.160083   0.002078
   115  H    0.163299  -0.000049
   116  H    0.141216  -0.000895
   117  C   -0.145892  -0.007518
   118  C   -0.145794   0.021258
   119  H    0.160020   0.001730
   120  H    0.160618  -0.001281
   121  H    0.295940  -0.003569
   122  O   -0.341188  -0.001516
   123  H    0.120206  -0.000061
   124  H    0.113076  -0.000046
   125  H    0.112701   0.000168
   126  H    0.115466   0.000419
   127  H    0.141571  -0.000776
   128  H    0.356527  -0.006742
 Sum of Mulliken charges =  -0.00000   2.00000
 Mulliken charges and spin densities with hydrogens summed into heavy atoms:
               1          2
     2  C   -0.009402   0.004000
     6  O   -0.547289   0.004853
     8  O   -0.017956   0.013271
    10  C    0.143527  -0.001053
    13  C   -0.036106  -0.000751
    17  C    0.007882  -0.000280
    20  Ru   0.723635   0.905530
    22  N   -0.222838  -0.004957
    23  C    0.161738   0.002086
    24  C    0.032914  -0.003912
    27  C   -0.020848   0.000187
    28  C    0.004135  -0.002876
    29  P    0.054188  -0.015633
    31  C    0.003955  -0.000189
    35  C    0.153173  -0.000800
    37  C   -0.253710  -0.013832
    38  C   -0.000944  -0.000550
    40  C   -0.003232  -0.001644
    43  C    0.117255  -0.001246
    44  N   -0.176015   0.061150
    45  C    0.010800   0.000136
    50  C    0.066869  -0.001981
    53  C    0.025286   0.002182
    54  C    0.001228   0.005695
    59  C    0.032203   0.004119
    60  C    0.016323   0.000032
    63  O   -0.339791   0.007475
    64  C    0.015244   0.000235
    66  O    0.043400   0.030604
    68  O   -0.522317   0.007500
    70  C    0.127907  -0.001362
    72  C   -0.023202   0.000245
    75  C    0.007859   0.001380
    78  Ru   0.751019   0.964383
    80  N   -0.248049  -0.007009
    81  C    0.194112   0.001473
    82  C    0.038746  -0.003600
    85  C   -0.021575   0.001808
    86  C    0.009799  -0.002491
    87  P    0.026574  -0.020783
    89  C    0.004569  -0.000389
    93  C    0.143484  -0.000751
    95  C   -0.216555  -0.029689
    96  C    0.001930  -0.000756
    98  C   -0.009408  -0.000358
   101  C    0.089755   0.019004
   102  N   -0.196150   0.054588
   103  C    0.028510   0.000503
   108  C    0.076413  -0.001396
   111  C    0.065643   0.017658
   112  C   -0.002453  -0.004481
   117  C    0.014128  -0.005788
   118  C    0.014824   0.019978
   122  O   -0.341188  -0.001516
 Electronic spatial extent (au):  <R**2>=          38708.5424
 Charge=             -0.0000 electrons
 Dipole moment (field-independent basis, Debye):
    X=              0.0192    Y=             -2.0163    Z=            -10.5917  Tot=             10.7820
 Quadrupole moment (field-independent basis, Debye-Ang):
   XX=           -276.5330   YY=           -331.3598   ZZ=           -389.8391
   XY=            -34.1924   XZ=             -1.7057   YZ=              1.2601
 Traceless Quadrupole moment (field-independent basis, Debye-Ang):
   XX=             56.0443   YY=              1.2175   ZZ=            -57.2618
   XY=            -34.1924   XZ=             -1.7057   YZ=              1.2601
 Octapole moment (field-independent basis, Debye-Ang**2):
  XXX=             12.5454  YYY=            -17.3358  ZZZ=              4.2727  XYY=             18.2769
  XXY=             10.8372  XXZ=           -293.8488  XZZ=            -22.5186  YZZ=             10.9728
  YYZ=             15.1969  XYZ=           -119.5143
 Hexadecapole moment (field-independent basis, Debye-Ang**3):
 XXXX=         -27820.8772 YYYY=         -11429.3551 ZZZZ=          -9055.8046 XXXY=          -1325.3420
 XXXZ=            -39.8758 YYYX=           -323.0272 YYYZ=            -11.1721 ZZZX=              5.4356
 ZZZY=             11.2195 XXYY=          -6488.9809 XXZZ=          -6783.1600 YYZZ=          -3482.7913
 XXYZ=            -29.5207 YYXZ=             23.5864 ZZXY=           -217.6666
 N-N= 1.051705924983D+04 E-N=-2.827090302316D+04  KE= 2.970329367269D+03
 1\1\GINC-NODE277\SP\UPBE1PBE\GenECP\C40H74N4O6P2Ru2(3)\JS1212\23-Jul-2
 020\0\\# genecp pbe1pbe EmpiricalDispersion=GD3BJ scrf=(SMD,solvent=wa
 ter) geom=allcheck\\Title Card Required\\0,3\H,0,0.7836069907,3.124907
 6802,0.3792961394\C,0,-0.1023258473,2.7809857148,0.933173819\H,0,0.002
 7381473,3.1266874706,1.9731217615\H,0,-0.0884771523,1.6817760576,0.920
 1206115\H,0,-3.000616064,-1.4317260832,-3.0293542477\O,0,-2.6470249716
 ,1.2901823474,-1.6670473677\H,0,-2.3468875083,-3.1985873118,-1.5022154
 353\O,0,-1.2250444058,1.0928895888,-1.836227184\H,0,-0.6966791884,-0.6
 136181633,0.645542583\C,0,-1.3415043386,3.3181129518,0.2518160855\H,0,
 -4.350464286,-1.6892998128,-4.1586909076\H,0,-1.3643155568,4.424201874
 6,0.3100045137\C,0,-4.0083628435,-1.8652039853,-3.1245543293\H,0,-1.71
 57332858,-2.5194907797,0.0082825308\H,0,-3.9298929634,-2.9550616074,-2
 .9952970655\H,0,-1.3297804797,3.0343405096,-0.8083224827\C,0,-2.409506
 9103,-3.2643911427,-0.4072084399\H,0,-2.0701336162,-4.2698667705,-0.10
 4455334\H,0,-3.4981180878,3.2357132509,-1.003184458\Ru,0,-3.0096042071
 ,0.5603421793,0.2528703611\H,0,-4.3042260972,0.7948018848,-2.538040523
 2\N,0,-2.6058392322,2.7748803863,0.7965662703\C,0,-3.7213525525,3.4116
 615723,0.0632534036\C,0,-5.0176462976,-1.2387573544,-2.1615449306\H,0,
 -5.6143034656,0.2187159872,-3.6180446982\H,0,-4.7373075782,-4.19460299
 84,-1.5386125857\C,0,-5.2408373053,0.2207264457,-2.5793881336\C,0,-3.8
 370431563,-3.0364183577,0.1007375037\P,0,-4.2863543099,-1.2465843319,-
 0.3898316243\H,0,-3.7680226329,4.4986036603,0.2463513243\C,0,-4.760553
 2411,-4.1250371082,-0.4436413357\H,0,-1.9666202894,2.3802501388,2.7418
 118978\H,0,-1.6877225837,4.8915927664,2.515813448\H,0,-4.4263383386,-5
 .0989254667,-0.0470765103\C,0,-2.740521871,2.9873245417,2.255526529\H,
 0,-6.6962512624,-1.8883141349,-3.3279573915\C,0,-2.817585183,-0.030751
 9945,1.973704115\C,0,-6.3712020395,-1.9470531322,-2.2752710644\H,0,-3.
 2095407658,-2.3982254184,2.1134878787\C,0,-3.8351220705,-3.1545173776,
 1.6261899918\H,0,-6.3500902958,-3.0069748771,-2.000154525\H,0,-3.43001
 88693,-4.1439676979,1.896829111\C,0,-5.0375030076,2.7549721854,0.36531
 97552\N,0,-4.9709248765,1.4175367482,0.3987211262\C,0,-2.6574451493,4.
 425477661,2.7448988851\H,0,-6.0064577565,0.7153926825,-1.9636883696\H,
 0,-3.7021807206,2.5436384812,2.5526483243\H,0,-5.8035122681,-3.9839053
 507,-0.1222591161\H,0,-3.4508529497,5.0642276067,2.3282343448\C,0,-5.8
 018111718,-0.8247203112,0.6500989846\H,0,-2.7757959923,4.4339870298,3.
 8388261627\H,0,-7.1481516233,-1.4466974102,-1.6778887715\C,0,-6.057291
 6961,0.6538534364,0.6007339852\C,0,-6.251004637,3.4106686187,0.5416906
 644\H,0,-4.8501063036,-3.0964248263,2.0482050239\H,0,-6.2976585385,4.5
 002729826,0.5163762132\H,0,-5.504262144,-1.0762536569,1.6815967138\H,0
 ,-6.7054018184,-1.4025779076,0.4106071082\C,0,-7.3065112139,1.25185995
 92,0.7669006487\C,0,-7.3988142504,2.6416622491,0.7363087122\H,0,-8.192
 1593439,0.6341223176,0.9218979497\H,0,-8.367248298,3.1274849255,0.8696
 098921\O,0,-2.6175815002,-0.3384330018,3.0888009203\C,0,1.5492562239,-
 4.4583499197,-1.0326903031\H,0,-2.2562221042,0.8641437374,-4.009578968
 7\O,0,0.0652067606,-0.5829158701,0.0401674232\H,0,-0.6960158993,2.8813
 772573,-3.5318459968\O,0,-0.7981114132,-1.1533852967,-3.0534029926\H,0
 ,-0.2676169042,0.0764981574,-0.6088160056\C,0,1.1469391048,-3.11597660
 45,-1.6268666604\H,0,-3.3921330376,0.8738393659,-5.3739886554\C,0,-2.3
 794330575,1.172486899,-5.0541911506\H,0,0.9570641844,2.5481287292,-3.0
 345003523\H,0,-2.3398182516,2.2704825641,-5.0865434557\C,0,0.353336438
 ,3.1042375712,-3.7658272347\H,0,0.5275934866,4.1849746746,-3.626798062
 3\H,0,0.3306319287,-3.6999237825,-3.9139411613\Ru,0,1.1448443974,-0.65
 31825851,-3.7459157973\H,0,-1.4436107086,-1.4216656554,-4.9774274599\N
 ,0,1.8343156817,-2.7063352793,-2.8762368783\C,0,1.4291604391,-3.624729
 8182,-3.9636841091\C,0,-1.3582290585,0.5207579266,-5.9876576212\H,0,-2
 .6171065304,-1.1890456443,-6.3077124528\H,0,-1.1050125445,3.5375288594
 ,-6.0716720157\C,0,-1.5805989263,-0.9978511812,-5.9811298214\C,0,0.740
 0997258,2.7161991352,-5.1959922075\P,0,0.4077388451,0.8400702266,-5.32
 84064197\H,0,1.8521066795,-4.6336903404,-3.816287631\C,0,-0.016129114,
 3.5880019334,-6.1975276632\H,0,3.7289157431,-2.342980842,-3.6585107326
 \H,0,3.3325184863,-0.9528069832,-1.5003088203\H,0,0.2822477518,4.63785
 52903,-6.0366504271\C,0,3.3062885944,-2.741134146,-2.724468396\H,0,-2.
 6080968023,0.733522404,-7.7173219893\C,0,2.7873285249,0.1233583028,-3.
 7249534085\C,0,-1.5790557299,1.0025455007,-7.4245737819\H,0,2.87419964
 19,2.3744243897,-4.7504501153\C,0,2.2336653617,2.9899730319,-5.3929104
 337\H,0,-1.4780368903,2.0856234706,-7.5505985464\H,0,2.424955824,4.044
 2715001,-5.1320874791\C,0,1.7796600928,-3.1168664816,-5.3314627829\N,0
 ,1.5011348619,-1.8167587065,-5.5151997551\C,0,3.8067478402,-1.94349220
 34,-1.5369128397\H,0,-0.916455911,-1.5115041761,-6.6929720404\H,0,3.64
 23197944,-3.7934265466,-2.6425845612\H,0,0.2314722613,3.3359009298,-7.
 2396475793\H,0,3.6072363179,-2.4505351128,-0.5822600115\C,0,1.48560074
 87,0.2601545781,-6.7530115099\H,0,4.8929073525,-1.7984322298,-1.623598
 7209\H,0,-0.9075139787,0.5026899525,-8.1386739896\C,0,1.7110569836,-1.
 2235940363,-6.7058209813\C,0,2.285363536,-3.9011776606,-6.3601753523\H
 ,0,2.545893246,2.8569014225,-6.4403223502\H,0,2.5142311298,-4.95364536
 16,-6.1863345576\H,0,2.4622468149,0.7375879307,-6.5688075571\H,0,1.147
 9654169,0.5882476785,-7.7464921065\C,0,2.1803209163,-1.9663920452,-7.7
 879428911\C,0,2.4717570105,-3.3173166931,-7.6135075462\H,0,2.328832767
 2,-1.4817028806,-8.7540825558\H,0,2.8533196233,-3.9096997454,-8.446815
 3492\H,0,-0.678548005,-1.5290626567,-2.1711239038\O,0,3.8579943817,0.5
 97990439,-3.6536293425\H,0,0.9305008056,-4.6382396235,-0.1407044074\H,
 0,2.6002086944,-4.486540206,-0.7094352385\H,0,1.3798741413,-5.30126296
 95,-1.7202990056\H,0,0.0771984994,-3.1492871485,-1.8705985107\H,0,1.26
 69156691,-2.308421622,-0.8940935809\H,0,-1.16813659,0.2563226743,-2.40
 36016506\\Version=ES64L-G16RevA.03\State=3-A\HF=-3109.8762131\S2=2.013
 091\S2-1=0.\S2A=2.000113\RMSD=2.222e-09\Dipole=-2.978344,-1.3125721,-2
 .7204328\Quadrupole=-3.7279253,13.1697439,-9.4418186,-26.6075274,-35.3
 583476,18.0839473\PG=C01 [X(C40H74N4O6P2Ru2)]\\@


 Experience is what you get when you don't get what you want.
 -- Dan Stanford
 Job cpu time:      12 days 15 hours  4 minutes 39.4 seconds.
 Elapsed time:       0 days 15 hours  9 minutes 58.5 seconds.
 File lengths (MBytes):  RWF=   7609 Int=      0 D2E=      0 Chk=    591 Scr=      1
 Normal termination of Gaussian 16 at Thu Jul 23 08:10:43 2020.
