 Entering Gaussian System, Link 0=g16
 Initial command:
 /cluster/chemistry/gaussian/g16/l1.exe "/scratch/js1212.756046/scratch/Gau-25160.inp" -scrdir="/scratch/js1212.756046/scratch/"
 Entering Link 1 = /cluster/chemistry/gaussian/g16/l1.exe PID=     25162.
  
 Copyright (c) 1988,1990,1992,1993,1995,1998,2003,2009,2016,
            Gaussian, Inc.  All Rights Reserved.
  
 This is part of the Gaussian(R) 16 program.  It is based on
 the Gaussian(R) 09 system (copyright 2009, Gaussian, Inc.),
 the Gaussian(R) 03 system (copyright 2003, Gaussian, Inc.),
 the Gaussian(R) 98 system (copyright 1998, Gaussian, Inc.),
 the Gaussian(R) 94 system (copyright 1995, Gaussian, Inc.),
 the Gaussian 92(TM) system (copyright 1992, Gaussian, Inc.),
 the Gaussian 90(TM) system (copyright 1990, Gaussian, Inc.),
 the Gaussian 88(TM) system (copyright 1988, Gaussian, Inc.),
 the Gaussian 86(TM) system (copyright 1986, Carnegie Mellon
 University), and the Gaussian 82(TM) system (copyright 1983,
 Carnegie Mellon University). Gaussian is a federally registered
 trademark of Gaussian, Inc.
  
 This software contains proprietary and confidential information,
 including trade secrets, belonging to Gaussian, Inc.
  
 This software is provided under written license and may be
 used, copied, transmitted, or stored only in accord with that
 written license.
  
 The following legend is applicable only to US Government
 contracts under FAR:
  
                    RESTRICTED RIGHTS LEGEND
  
 Use, reproduction and disclosure by the US Government is
 subject to restrictions as set forth in subparagraphs (a)
 and (c) of the Commercial Computer Software - Restricted
 Rights clause in FAR 52.227-19.
  
 Gaussian, Inc.
 340 Quinnipiac St., Bldg. 40, Wallingford CT 06492
  
  
 ---------------------------------------------------------------
 Warning -- This program may not be used in any manner that
 competes with the business of Gaussian, Inc. or will provide
 assistance to any competitor of Gaussian, Inc.  The licensee
 of this program is prohibited from giving any competitor of
 Gaussian, Inc. access to this program.  By using this program,
 the user acknowledges that Gaussian, Inc. is engaged in the
 business of creating and licensing software in the field of
 computational chemistry and represents and warrants to the
 licensee that it is not a competitor of Gaussian, Inc. and that
 it will not use this program in any manner prohibited above.
 ---------------------------------------------------------------
  

 Cite this work as:
 Gaussian 16, Revision A.03,
 M. J. Frisch, G. W. Trucks, H. B. Schlegel, G. E. Scuseria, 
 M. A. Robb, J. R. Cheeseman, G. Scalmani, V. Barone, 
 G. A. Petersson, H. Nakatsuji, X. Li, M. Caricato, A. V. Marenich, 
 J. Bloino, B. G. Janesko, R. Gomperts, B. Mennucci, H. P. Hratchian, 
 J. V. Ortiz, A. F. Izmaylov, J. L. Sonnenberg, D. Williams-Young, 
 F. Ding, F. Lipparini, F. Egidi, J. Goings, B. Peng, A. Petrone, 
 T. Henderson, D. Ranasinghe, V. G. Zakrzewski, J. Gao, N. Rega, 
 G. Zheng, W. Liang, M. Hada, M. Ehara, K. Toyota, R. Fukuda, 
 J. Hasegawa, M. Ishida, T. Nakajima, Y. Honda, O. Kitao, H. Nakai, 
 T. Vreven, K. Throssell, J. A. Montgomery, Jr., J. E. Peralta, 
 F. Ogliaro, M. J. Bearpark, J. J. Heyd, E. N. Brothers, K. N. Kudin, 
 V. N. Staroverov, T. A. Keith, R. Kobayashi, J. Normand, 
 K. Raghavachari, A. P. Rendell, J. C. Burant, S. S. Iyengar, 
 J. Tomasi, M. Cossi, J. M. Millam, M. Klene, C. Adamo, R. Cammi, 
 J. W. Ochterski, R. L. Martin, K. Morokuma, O. Farkas, 
 J. B. Foresman, and D. J. Fox, Gaussian, Inc., Wallingford CT, 2016.
 
 ******************************************
 Gaussian 16:  ES64L-G16RevA.03 25-Dec-2016
                12-Jul-2020 
 ******************************************
 %rwf=/scratch/js1212.756046/H-Trans-R2-R2-Down-RuMove-T-GPF.rwf
 %nosave
 %nprocshared=20
 Will use up to   20 processors via shared memory.
 %mem=3000MB
 %oldchk=/data/js1212/200706_g16/H-Trans-R2-R2-Down-RuMove-T-GPOF.chk
 %chk=/scratch/js1212.756046/H-Trans-R2-R2-Down-RuMove-T-GPF.chk
 Copying data from "/data/js1212/200706_g16/H-Trans-R2-R2-Down-RuMove-T-GPOF.chk" to current chk file "/scratch/js1212.756046/H-Trans-R2-R2-Down-RuMove-T-GPF.chk"
 IOpt=  2 FromEx=T IUOpen= 4 IOptOp= 5 NList=   0 IFRang= 0 IUIn= 4 IUOut= 2.
 ----------------------------------------------------------------------
 # freq genecp pbe1pbe EmpiricalDispersion=GD3BJ Geom=AllCheck Guess=TC
 heck
 ----------------------------------------------------------------------
 1/10=4,29=7,30=1,38=1/1,3;
 2/12=2,40=1/2;
 3/5=7,11=2,14=-4,16=1,17=8,25=1,30=1,71=2,74=-13,116=-2,124=41,140=1/1,2,3;
 4/5=101/1;
 5/5=2,38=6,98=1/2;
 8/6=4,10=90,11=11/1;
 11/6=1,8=1,9=11,15=111,16=1/1,2,10;
 10/6=1/2;
 6/7=2,8=2,9=2,10=2,28=1/1;
 7/8=1,10=1,25=1/1,2,3,16;
 1/10=4,30=1/3;
 99//99;
 Structure from the checkpoint file:  "/scratch/js1212.756046/H-Trans-R2-R2-Down-RuMove-T-GPF.chk"
 -------------------
 Title Card Required
 -------------------
 Charge =  0 Multiplicity = 3
 Redundant internal coordinates found in file.  (old form).
 H,0,0.7836069907,3.1249076802,0.3792961394
 C,0,-0.1023258473,2.7809857148,0.933173819
 H,0,0.0027381473,3.1266874706,1.9731217615
 H,0,-0.0884771523,1.6817760576,0.9201206115
 H,0,-3.000616064,-1.4317260832,-3.0293542477
 O,0,-2.6470249716,1.2901823474,-1.6670473677
 H,0,-2.3468875083,-3.1985873118,-1.5022154353
 O,0,-1.2250444058,1.0928895888,-1.836227184
 H,0,-0.6966791884,-0.6136181633,0.645542583
 C,0,-1.3415043386,3.3181129518,0.2518160855
 H,0,-4.350464286,-1.6892998128,-4.1586909076
 H,0,-1.3643155568,4.4242018746,0.3100045137
 C,0,-4.0083628435,-1.8652039853,-3.1245543293
 H,0,-1.7157332858,-2.5194907797,0.0082825308
 H,0,-3.9298929634,-2.9550616074,-2.9952970655
 H,0,-1.3297804797,3.0343405096,-0.8083224827
 C,0,-2.4095069103,-3.2643911427,-0.4072084399
 H,0,-2.0701336162,-4.2698667705,-0.104455334
 H,0,-3.4981180878,3.2357132509,-1.003184458
 Ru,0,-3.0096042071,0.5603421793,0.2528703611
 H,0,-4.3042260972,0.7948018848,-2.5380405232
 N,0,-2.6058392322,2.7748803863,0.7965662703
 C,0,-3.7213525525,3.4116615723,0.0632534036
 C,0,-5.0176462976,-1.2387573544,-2.1615449306
 H,0,-5.6143034656,0.2187159872,-3.6180446982
 H,0,-4.7373075782,-4.1946029984,-1.5386125857
 C,0,-5.2408373053,0.2207264457,-2.5793881336
 C,0,-3.8370431563,-3.0364183577,0.1007375037
 P,0,-4.2863543099,-1.2465843319,-0.3898316243
 H,0,-3.7680226329,4.4986036603,0.2463513243
 C,0,-4.7605532411,-4.1250371082,-0.4436413357
 H,0,-1.9666202894,2.3802501388,2.7418118978
 H,0,-1.6877225837,4.8915927664,2.515813448
 H,0,-4.4263383386,-5.0989254667,-0.0470765103
 C,0,-2.740521871,2.9873245417,2.255526529
 H,0,-6.6962512624,-1.8883141349,-3.3279573915
 C,0,-2.817585183,-0.0307519945,1.973704115
 C,0,-6.3712020395,-1.9470531322,-2.2752710644
 H,0,-3.2095407658,-2.3982254184,2.1134878787
 C,0,-3.8351220705,-3.1545173776,1.6261899918
 H,0,-6.3500902958,-3.0069748771,-2.000154525
 H,0,-3.4300188693,-4.1439676979,1.896829111
 C,0,-5.0375030076,2.7549721854,0.3653197552
 N,0,-4.9709248765,1.4175367482,0.3987211262
 C,0,-2.6574451493,4.425477661,2.7448988851
 H,0,-6.0064577565,0.7153926825,-1.9636883696
 H,0,-3.7021807206,2.5436384812,2.5526483243
 H,0,-5.8035122681,-3.9839053507,-0.1222591161
 H,0,-3.4508529497,5.0642276067,2.3282343448
 C,0,-5.8018111718,-0.8247203112,0.6500989846
 H,0,-2.7757959923,4.4339870298,3.8388261627
 H,0,-7.1481516233,-1.4466974102,-1.6778887715
 C,0,-6.0572916961,0.6538534364,0.6007339852
 C,0,-6.251004637,3.4106686187,0.5416906644
 H,0,-4.8501063036,-3.0964248263,2.0482050239
 H,0,-6.2976585385,4.5002729826,0.5163762132
 H,0,-5.504262144,-1.0762536569,1.6815967138
 H,0,-6.7054018184,-1.4025779076,0.4106071082
 C,0,-7.3065112139,1.2518599592,0.7669006487
 C,0,-7.3988142504,2.6416622491,0.7363087122
 H,0,-8.1921593439,0.6341223176,0.9218979497
 H,0,-8.367248298,3.1274849255,0.8696098921
 O,0,-2.6175815002,-0.3384330018,3.0888009203
 C,0,1.5492562239,-4.4583499197,-1.0326903031
 H,0,-2.2562221042,0.8641437374,-4.0095789687
 O,0,0.0652067606,-0.5829158701,0.0401674232
 H,0,-0.6960158993,2.8813772573,-3.5318459968
 O,0,-0.7981114132,-1.1533852967,-3.0534029926
 H,0,-0.2676169042,0.0764981574,-0.6088160056
 C,0,1.1469391048,-3.1159766045,-1.6268666604
 H,0,-3.3921330376,0.8738393659,-5.3739886554
 C,0,-2.3794330575,1.172486899,-5.0541911506
 H,0,0.9570641844,2.5481287292,-3.0345003523
 H,0,-2.3398182516,2.2704825641,-5.0865434557
 C,0,0.353336438,3.1042375712,-3.7658272347
 H,0,0.5275934866,4.1849746746,-3.6267980623
 H,0,0.3306319287,-3.6999237825,-3.9139411613
 Ru,0,1.1448443974,-0.6531825851,-3.7459157973
 H,0,-1.4436107086,-1.4216656554,-4.9774274599
 N,0,1.8343156817,-2.7063352793,-2.8762368783
 C,0,1.4291604391,-3.6247298182,-3.9636841091
 C,0,-1.3582290585,0.5207579266,-5.9876576212
 H,0,-2.6171065304,-1.1890456443,-6.3077124528
 H,0,-1.1050125445,3.5375288594,-6.0716720157
 C,0,-1.5805989263,-0.9978511812,-5.9811298214
 C,0,0.7400997258,2.7161991352,-5.1959922075
 P,0,0.4077388451,0.8400702266,-5.3284064197
 H,0,1.8521066795,-4.6336903404,-3.816287631
 C,0,-0.016129114,3.5880019334,-6.1975276632
 H,0,3.7289157431,-2.342980842,-3.6585107326
 H,0,3.3325184863,-0.9528069832,-1.5003088203
 H,0,0.2822477518,4.6378552903,-6.0366504271
 C,0,3.3062885944,-2.741134146,-2.724468396
 H,0,-2.6080968023,0.733522404,-7.7173219893
 C,0,2.7873285249,0.1233583028,-3.7249534085
 C,0,-1.5790557299,1.0025455007,-7.4245737819
 H,0,2.8741996419,2.3744243897,-4.7504501153
 C,0,2.2336653617,2.9899730319,-5.3929104337
 H,0,-1.4780368903,2.0856234706,-7.5505985464
 H,0,2.424955824,4.0442715001,-5.1320874791
 C,0,1.7796600928,-3.1168664816,-5.3314627829
 N,0,1.5011348619,-1.8167587065,-5.5151997551
 C,0,3.8067478402,-1.9434922034,-1.5369128397
 H,0,-0.916455911,-1.5115041761,-6.6929720404
 H,0,3.6423197944,-3.7934265466,-2.6425845612
 H,0,0.2314722613,3.3359009298,-7.2396475793
 H,0,3.6072363179,-2.4505351128,-0.5822600115
 C,0,1.4856007487,0.2601545781,-6.7530115099
 H,0,4.8929073525,-1.7984322298,-1.6235987209
 H,0,-0.9075139787,0.5026899525,-8.1386739896
 C,0,1.7110569836,-1.2235940363,-6.7058209813
 C,0,2.285363536,-3.9011776606,-6.3601753523
 H,0,2.545893246,2.8569014225,-6.4403223502
 H,0,2.5142311298,-4.9536453616,-6.1863345576
 H,0,2.4622468149,0.7375879307,-6.5688075571
 H,0,1.1479654169,0.5882476785,-7.7464921065
 C,0,2.1803209163,-1.9663920452,-7.7879428911
 C,0,2.4717570105,-3.3173166931,-7.6135075462
 H,0,2.3288327672,-1.4817028806,-8.7540825558
 H,0,2.8533196233,-3.9096997454,-8.4468153492
 H,0,-0.678548005,-1.5290626567,-2.1711239038
 O,0,3.8579943817,0.597990439,-3.6536293425
 H,0,0.9305008056,-4.6382396235,-0.1407044074
 H,0,2.6002086944,-4.486540206,-0.7094352385
 H,0,1.3798741413,-5.3012629695,-1.7202990056
 H,0,0.0771984994,-3.1492871485,-1.8705985107
 H,0,1.2669156691,-2.308421622,-0.8940935809
 H,0,-1.16813659,0.2563226743,-2.4036016506
 Recover connectivity data from disk.

 GradGradGradGradGradGradGradGradGradGradGradGradGradGradGradGradGradGrad
 Berny optimization.
 Initialization pass.
                           ----------------------------
                           !    Initial Parameters    !
                           ! (Angstroms and Degrees)  !
 --------------------------                            --------------------------
 ! Name  Definition              Value          Derivative Info.                !
 --------------------------------------------------------------------------------
 ! R1    R(1,2)                  1.1            calculate D2E/DX2 analytically  !
 ! R2    R(2,3)                  1.1009         calculate D2E/DX2 analytically  !
 ! R3    R(2,4)                  1.0994         calculate D2E/DX2 analytically  !
 ! R4    R(2,10)                 1.5127         calculate D2E/DX2 analytically  !
 ! R5    R(5,13)                 1.1011         calculate D2E/DX2 analytically  !
 ! R6    R(5,68)                 2.2202         calculate D2E/DX2 analytically  !
 ! R7    R(5,121)                2.4775         calculate D2E/DX2 analytically  !
 ! R8    R(6,8)                  1.4455         calculate D2E/DX2 analytically  !
 ! R9    R(6,20)                 2.0857         calculate D2E/DX2 analytically  !
 ! R10   R(7,17)                 1.0988         calculate D2E/DX2 analytically  !
 ! R11   R(8,128)                1.0124         calculate D2E/DX2 analytically  !
 ! R12   R(9,66)                 0.9736         calculate D2E/DX2 analytically  !
 ! R13   R(10,12)                1.1079         calculate D2E/DX2 analytically  !
 ! R14   R(10,16)                1.0975         calculate D2E/DX2 analytically  !
 ! R15   R(10,22)                1.48           calculate D2E/DX2 analytically  !
 ! R16   R(11,13)                1.1034         calculate D2E/DX2 analytically  !
 ! R17   R(13,15)                1.1003         calculate D2E/DX2 analytically  !
 ! R18   R(13,24)                1.5292         calculate D2E/DX2 analytically  !
 ! R19   R(14,17)                1.0995         calculate D2E/DX2 analytically  !
 ! R20   R(17,18)                1.1035         calculate D2E/DX2 analytically  !
 ! R21   R(17,28)                1.5323         calculate D2E/DX2 analytically  !
 ! R22   R(19,23)                1.1037         calculate D2E/DX2 analytically  !
 ! R23   R(20,29)                2.3039         calculate D2E/DX2 analytically  !
 ! R24   R(20,37)                1.8296         calculate D2E/DX2 analytically  !
 ! R25   R(20,44)                2.1454         calculate D2E/DX2 analytically  !
 ! R26   R(21,27)                1.0993         calculate D2E/DX2 analytically  !
 ! R27   R(21,65)                2.5228         calculate D2E/DX2 analytically  !
 ! R28   R(22,23)                1.4791         calculate D2E/DX2 analytically  !
 ! R29   R(22,35)                1.4805         calculate D2E/DX2 analytically  !
 ! R30   R(23,30)                1.1032         calculate D2E/DX2 analytically  !
 ! R31   R(23,43)                1.5016         calculate D2E/DX2 analytically  !
 ! R32   R(24,27)                1.5344         calculate D2E/DX2 analytically  !
 ! R33   R(24,29)                1.9167         calculate D2E/DX2 analytically  !
 ! R34   R(24,38)                1.5319         calculate D2E/DX2 analytically  !
 ! R35   R(25,27)                1.1038         calculate D2E/DX2 analytically  !
 ! R36   R(25,71)                2.907          calculate D2E/DX2 analytically  !
 ! R37   R(26,31)                1.0974         calculate D2E/DX2 analytically  !
 ! R38   R(27,46)                1.1            calculate D2E/DX2 analytically  !
 ! R39   R(28,29)                1.9095         calculate D2E/DX2 analytically  !
 ! R40   R(28,31)                1.5278         calculate D2E/DX2 analytically  !
 ! R41   R(28,40)                1.53           calculate D2E/DX2 analytically  !
 ! R42   R(29,50)                1.8857         calculate D2E/DX2 analytically  !
 ! R43   R(31,34)                1.1034         calculate D2E/DX2 analytically  !
 ! R44   R(31,48)                1.1004         calculate D2E/DX2 analytically  !
 ! R45   R(32,35)                1.0972         calculate D2E/DX2 analytically  !
 ! R46   R(33,45)                1.1            calculate D2E/DX2 analytically  !
 ! R47   R(35,45)                1.5214         calculate D2E/DX2 analytically  !
 ! R48   R(35,47)                1.1            calculate D2E/DX2 analytically  !
 ! R49   R(36,38)                1.1033         calculate D2E/DX2 analytically  !
 ! R50   R(37,63)                1.1739         calculate D2E/DX2 analytically  !
 ! R51   R(38,41)                1.0952         calculate D2E/DX2 analytically  !
 ! R52   R(38,52)                1.1004         calculate D2E/DX2 analytically  !
 ! R53   R(39,40)                1.0958         calculate D2E/DX2 analytically  !
 ! R54   R(40,42)                1.1029         calculate D2E/DX2 analytically  !
 ! R55   R(40,55)                1.1008         calculate D2E/DX2 analytically  !
 ! R56   R(43,44)                1.3395         calculate D2E/DX2 analytically  !
 ! R57   R(43,54)                1.3906         calculate D2E/DX2 analytically  !
 ! R58   R(44,53)                1.3432         calculate D2E/DX2 analytically  !
 ! R59   R(45,49)                1.1005         calculate D2E/DX2 analytically  !
 ! R60   R(45,51)                1.1003         calculate D2E/DX2 analytically  !
 ! R61   R(50,53)                1.5013         calculate D2E/DX2 analytically  !
 ! R62   R(50,57)                1.1026         calculate D2E/DX2 analytically  !
 ! R63   R(50,58)                1.099          calculate D2E/DX2 analytically  !
 ! R64   R(53,59)                1.3949         calculate D2E/DX2 analytically  !
 ! R65   R(54,56)                1.0909         calculate D2E/DX2 analytically  !
 ! R66   R(54,60)                1.3952         calculate D2E/DX2 analytically  !
 ! R67   R(59,60)                1.3932         calculate D2E/DX2 analytically  !
 ! R68   R(59,61)                1.0909         calculate D2E/DX2 analytically  !
 ! R69   R(60,62)                1.0916         calculate D2E/DX2 analytically  !
 ! R70   R(64,70)                1.5221         calculate D2E/DX2 analytically  !
 ! R71   R(64,123)               1.1004         calculate D2E/DX2 analytically  !
 ! R72   R(64,124)               1.0999         calculate D2E/DX2 analytically  !
 ! R73   R(64,125)               1.1009         calculate D2E/DX2 analytically  !
 ! R74   R(65,72)                1.0961         calculate D2E/DX2 analytically  !
 ! R75   R(66,69)                0.9832         calculate D2E/DX2 analytically  !
 ! R76   R(66,126)               3.1996         calculate D2E/DX2 analytically  !
 ! R77   R(67,75)                1.098          calculate D2E/DX2 analytically  !
 ! R78   R(68,78)                2.1225         calculate D2E/DX2 analytically  !
 ! R79   R(68,121)               0.9664         calculate D2E/DX2 analytically  !
 ! R80   R(70,80)                1.4837         calculate D2E/DX2 analytically  !
 ! R81   R(70,126)               1.0977         calculate D2E/DX2 analytically  !
 ! R82   R(70,127)               1.097          calculate D2E/DX2 analytically  !
 ! R83   R(71,72)                1.1032         calculate D2E/DX2 analytically  !
 ! R84   R(72,74)                1.0992         calculate D2E/DX2 analytically  !
 ! R85   R(72,82)                1.5294         calculate D2E/DX2 analytically  !
 ! R86   R(73,75)                1.0994         calculate D2E/DX2 analytically  !
 ! R87   R(75,76)                1.1035         calculate D2E/DX2 analytically  !
 ! R88   R(75,86)                1.5315         calculate D2E/DX2 analytically  !
 ! R89   R(77,81)                1.1022         calculate D2E/DX2 analytically  !
 ! R90   R(78,87)                2.2973         calculate D2E/DX2 analytically  !
 ! R91   R(78,95)                1.8169         calculate D2E/DX2 analytically  !
 ! R92   R(78,102)               2.1474         calculate D2E/DX2 analytically  !
 ! R93   R(79,85)                1.0981         calculate D2E/DX2 analytically  !
 ! R94   R(80,81)                1.4799         calculate D2E/DX2 analytically  !
 ! R95   R(80,93)                1.4802         calculate D2E/DX2 analytically  !
 ! R96   R(81,88)                1.1039         calculate D2E/DX2 analytically  !
 ! R97   R(81,101)               1.5005         calculate D2E/DX2 analytically  !
 ! R98   R(82,85)                1.5348         calculate D2E/DX2 analytically  !
 ! R99   R(82,87)                1.9119         calculate D2E/DX2 analytically  !
 ! R100  R(82,96)                1.5315         calculate D2E/DX2 analytically  !
 ! R101  R(83,85)                1.1034         calculate D2E/DX2 analytically  !
 ! R102  R(84,89)                1.0973         calculate D2E/DX2 analytically  !
 ! R103  R(85,104)               1.1007         calculate D2E/DX2 analytically  !
 ! R104  R(86,87)                1.9099         calculate D2E/DX2 analytically  !
 ! R105  R(86,89)                1.5281         calculate D2E/DX2 analytically  !
 ! R106  R(86,98)                1.5312         calculate D2E/DX2 analytically  !
 ! R107  R(87,108)               1.8782         calculate D2E/DX2 analytically  !
 ! R108  R(89,92)                1.1032         calculate D2E/DX2 analytically  !
 ! R109  R(89,106)               1.1004         calculate D2E/DX2 analytically  !
 ! R110  R(90,93)                1.0998         calculate D2E/DX2 analytically  !
 ! R111  R(91,103)               1.0989         calculate D2E/DX2 analytically  !
 ! R112  R(93,103)               1.5156         calculate D2E/DX2 analytically  !
 ! R113  R(93,105)               1.1077         calculate D2E/DX2 analytically  !
 ! R114  R(94,96)                1.1032         calculate D2E/DX2 analytically  !
 ! R115  R(95,122)               1.1733         calculate D2E/DX2 analytically  !
 ! R116  R(96,99)                1.0951         calculate D2E/DX2 analytically  !
 ! R117  R(96,110)               1.1003         calculate D2E/DX2 analytically  !
 ! R118  R(97,98)                1.0963         calculate D2E/DX2 analytically  !
 ! R119  R(98,100)               1.1028         calculate D2E/DX2 analytically  !
 ! R120  R(98,113)               1.101          calculate D2E/DX2 analytically  !
 ! R121  R(101,102)              1.3422         calculate D2E/DX2 analytically  !
 ! R122  R(101,112)              1.3889         calculate D2E/DX2 analytically  !
 ! R123  R(102,111)              1.3467         calculate D2E/DX2 analytically  !
 ! R124  R(103,107)              1.0992         calculate D2E/DX2 analytically  !
 ! R125  R(103,109)              1.0992         calculate D2E/DX2 analytically  !
 ! R126  R(108,111)              1.5015         calculate D2E/DX2 analytically  !
 ! R127  R(108,115)              1.1026         calculate D2E/DX2 analytically  !
 ! R128  R(108,116)              1.0994         calculate D2E/DX2 analytically  !
 ! R129  R(111,117)              1.3939         calculate D2E/DX2 analytically  !
 ! R130  R(112,114)              1.091          calculate D2E/DX2 analytically  !
 ! R131  R(112,118)              1.3952         calculate D2E/DX2 analytically  !
 ! R132  R(117,118)              1.393          calculate D2E/DX2 analytically  !
 ! R133  R(117,119)              1.0911         calculate D2E/DX2 analytically  !
 ! R134  R(118,120)              1.0913         calculate D2E/DX2 analytically  !
 ! A1    A(1,2,3)              107.494          calculate D2E/DX2 analytically  !
 ! A2    A(1,2,4)              107.2471         calculate D2E/DX2 analytically  !
 ! A3    A(1,2,10)             108.781          calculate D2E/DX2 analytically  !
 ! A4    A(3,2,4)              108.9036         calculate D2E/DX2 analytically  !
 ! A5    A(3,2,10)             113.0884         calculate D2E/DX2 analytically  !
 ! A6    A(4,2,10)             111.0997         calculate D2E/DX2 analytically  !
 ! A7    A(13,5,68)            163.0036         calculate D2E/DX2 analytically  !
 ! A8    A(13,5,121)           150.7207         calculate D2E/DX2 analytically  !
 ! A9    A(8,6,20)             103.3548         calculate D2E/DX2 analytically  !
 ! A10   A(6,8,128)            103.5126         calculate D2E/DX2 analytically  !
 ! A11   A(2,10,12)            110.3478         calculate D2E/DX2 analytically  !
 ! A12   A(2,10,16)            109.5433         calculate D2E/DX2 analytically  !
 ! A13   A(2,10,22)            113.8088         calculate D2E/DX2 analytically  !
 ! A14   A(12,10,16)           108.005          calculate D2E/DX2 analytically  !
 ! A15   A(12,10,22)           109.241          calculate D2E/DX2 analytically  !
 ! A16   A(16,10,22)           105.6499         calculate D2E/DX2 analytically  !
 ! A17   A(5,13,11)            107.5793         calculate D2E/DX2 analytically  !
 ! A18   A(5,13,15)            108.3307         calculate D2E/DX2 analytically  !
 ! A19   A(5,13,24)            112.8496         calculate D2E/DX2 analytically  !
 ! A20   A(11,13,15)           106.8657         calculate D2E/DX2 analytically  !
 ! A21   A(11,13,24)           108.6803         calculate D2E/DX2 analytically  !
 ! A22   A(15,13,24)           112.263          calculate D2E/DX2 analytically  !
 ! A23   A(7,17,14)            107.4619         calculate D2E/DX2 analytically  !
 ! A24   A(7,17,18)            108.0861         calculate D2E/DX2 analytically  !
 ! A25   A(7,17,28)            111.9965         calculate D2E/DX2 analytically  !
 ! A26   A(14,17,18)           108.637          calculate D2E/DX2 analytically  !
 ! A27   A(14,17,28)           111.211          calculate D2E/DX2 analytically  !
 ! A28   A(18,17,28)           109.337          calculate D2E/DX2 analytically  !
 ! A29   A(6,20,29)             96.5453         calculate D2E/DX2 analytically  !
 ! A30   A(6,20,37)            163.8583         calculate D2E/DX2 analytically  !
 ! A31   A(6,20,44)             94.6857         calculate D2E/DX2 analytically  !
 ! A32   A(29,20,37)            93.8506         calculate D2E/DX2 analytically  !
 ! A33   A(29,20,44)            79.9628         calculate D2E/DX2 analytically  !
 ! A34   A(37,20,44)            99.2699         calculate D2E/DX2 analytically  !
 ! A35   A(27,21,65)           133.1614         calculate D2E/DX2 analytically  !
 ! A36   A(10,22,23)           107.6852         calculate D2E/DX2 analytically  !
 ! A37   A(10,22,35)           112.8157         calculate D2E/DX2 analytically  !
 ! A38   A(23,22,35)           110.9896         calculate D2E/DX2 analytically  !
 ! A39   A(19,23,22)           104.9447         calculate D2E/DX2 analytically  !
 ! A40   A(19,23,30)           109.0254         calculate D2E/DX2 analytically  !
 ! A41   A(19,23,43)           107.5747         calculate D2E/DX2 analytically  !
 ! A42   A(22,23,30)           111.9496         calculate D2E/DX2 analytically  !
 ! A43   A(22,23,43)           111.9036         calculate D2E/DX2 analytically  !
 ! A44   A(30,23,43)           111.1251         calculate D2E/DX2 analytically  !
 ! A45   A(13,24,27)           108.31           calculate D2E/DX2 analytically  !
 ! A46   A(13,24,29)           109.1848         calculate D2E/DX2 analytically  !
 ! A47   A(13,24,38)           110.3042         calculate D2E/DX2 analytically  !
 ! A48   A(27,24,29)           108.1249         calculate D2E/DX2 analytically  !
 ! A49   A(27,24,38)           106.9203         calculate D2E/DX2 analytically  !
 ! A50   A(29,24,38)           113.8189         calculate D2E/DX2 analytically  !
 ! A51   A(27,25,71)           108.0203         calculate D2E/DX2 analytically  !
 ! A52   A(21,27,24)           111.2557         calculate D2E/DX2 analytically  !
 ! A53   A(21,27,25)           108.9426         calculate D2E/DX2 analytically  !
 ! A54   A(21,27,46)           109.7014         calculate D2E/DX2 analytically  !
 ! A55   A(24,27,25)           107.6819         calculate D2E/DX2 analytically  !
 ! A56   A(24,27,46)           112.1205         calculate D2E/DX2 analytically  !
 ! A57   A(25,27,46)           106.9797         calculate D2E/DX2 analytically  !
 ! A58   A(17,28,29)           105.8737         calculate D2E/DX2 analytically  !
 ! A59   A(17,28,31)           109.8168         calculate D2E/DX2 analytically  !
 ! A60   A(17,28,40)           108.5333         calculate D2E/DX2 analytically  !
 ! A61   A(29,28,31)           115.7285         calculate D2E/DX2 analytically  !
 ! A62   A(29,28,40)           109.1957         calculate D2E/DX2 analytically  !
 ! A63   A(31,28,40)           107.5178         calculate D2E/DX2 analytically  !
 ! A64   A(20,29,24)           117.7802         calculate D2E/DX2 analytically  !
 ! A65   A(20,29,28)           122.2135         calculate D2E/DX2 analytically  !
 ! A66   A(20,29,50)            96.6645         calculate D2E/DX2 analytically  !
 ! A67   A(24,29,28)           109.3346         calculate D2E/DX2 analytically  !
 ! A68   A(24,29,50)           101.6668         calculate D2E/DX2 analytically  !
 ! A69   A(28,29,50)           104.8991         calculate D2E/DX2 analytically  !
 ! A70   A(26,31,28)           112.8221         calculate D2E/DX2 analytically  !
 ! A71   A(26,31,34)           107.232          calculate D2E/DX2 analytically  !
 ! A72   A(26,31,48)           108.6388         calculate D2E/DX2 analytically  !
 ! A73   A(28,31,34)           108.5271         calculate D2E/DX2 analytically  !
 ! A74   A(28,31,48)           112.1752         calculate D2E/DX2 analytically  !
 ! A75   A(34,31,48)           107.1765         calculate D2E/DX2 analytically  !
 ! A76   A(22,35,32)           107.049          calculate D2E/DX2 analytically  !
 ! A77   A(22,35,45)           116.5935         calculate D2E/DX2 analytically  !
 ! A78   A(22,35,47)           106.7289         calculate D2E/DX2 analytically  !
 ! A79   A(32,35,45)           109.9944         calculate D2E/DX2 analytically  !
 ! A80   A(32,35,47)           105.8874         calculate D2E/DX2 analytically  !
 ! A81   A(45,35,47)           110.0076         calculate D2E/DX2 analytically  !
 ! A82   A(24,38,36)           107.8505         calculate D2E/DX2 analytically  !
 ! A83   A(24,38,41)           114.3161         calculate D2E/DX2 analytically  !
 ! A84   A(24,38,52)           111.9205         calculate D2E/DX2 analytically  !
 ! A85   A(36,38,41)           107.2697         calculate D2E/DX2 analytically  !
 ! A86   A(36,38,52)           106.6038         calculate D2E/DX2 analytically  !
 ! A87   A(41,38,52)           108.4986         calculate D2E/DX2 analytically  !
 ! A88   A(28,40,39)           113.005          calculate D2E/DX2 analytically  !
 ! A89   A(28,40,42)           108.3227         calculate D2E/DX2 analytically  !
 ! A90   A(28,40,55)           112.1487         calculate D2E/DX2 analytically  !
 ! A91   A(39,40,42)           107.4795         calculate D2E/DX2 analytically  !
 ! A92   A(39,40,55)           108.6321         calculate D2E/DX2 analytically  !
 ! A93   A(42,40,55)           106.9751         calculate D2E/DX2 analytically  !
 ! A94   A(23,43,44)           113.4599         calculate D2E/DX2 analytically  !
 ! A95   A(23,43,54)           125.747          calculate D2E/DX2 analytically  !
 ! A96   A(44,43,54)           120.7318         calculate D2E/DX2 analytically  !
 ! A97   A(20,44,43)           116.2744         calculate D2E/DX2 analytically  !
 ! A98   A(20,44,53)           121.4963         calculate D2E/DX2 analytically  !
 ! A99   A(43,44,53)           122.0881         calculate D2E/DX2 analytically  !
 ! A100  A(33,45,35)           112.4382         calculate D2E/DX2 analytically  !
 ! A101  A(33,45,49)           108.1048         calculate D2E/DX2 analytically  !
 ! A102  A(33,45,51)           107.372          calculate D2E/DX2 analytically  !
 ! A103  A(35,45,49)           112.7993         calculate D2E/DX2 analytically  !
 ! A104  A(35,45,51)           108.7367         calculate D2E/DX2 analytically  !
 ! A105  A(49,45,51)           107.1199         calculate D2E/DX2 analytically  !
 ! A106  A(29,50,53)           109.813          calculate D2E/DX2 analytically  !
 ! A107  A(29,50,57)           104.3589         calculate D2E/DX2 analytically  !
 ! A108  A(29,50,58)           115.021          calculate D2E/DX2 analytically  !
 ! A109  A(53,50,57)           107.5388         calculate D2E/DX2 analytically  !
 ! A110  A(53,50,58)           111.7632         calculate D2E/DX2 analytically  !
 ! A111  A(57,50,58)           107.8058         calculate D2E/DX2 analytically  !
 ! A112  A(44,53,50)           115.2937         calculate D2E/DX2 analytically  !
 ! A113  A(44,53,59)           119.8999         calculate D2E/DX2 analytically  !
 ! A114  A(50,53,59)           124.7991         calculate D2E/DX2 analytically  !
 ! A115  A(43,54,56)           120.3551         calculate D2E/DX2 analytically  !
 ! A116  A(43,54,60)           118.4058         calculate D2E/DX2 analytically  !
 ! A117  A(56,54,60)           121.2359         calculate D2E/DX2 analytically  !
 ! A118  A(53,59,60)           118.9717         calculate D2E/DX2 analytically  !
 ! A119  A(53,59,61)           120.0818         calculate D2E/DX2 analytically  !
 ! A120  A(60,59,61)           120.946          calculate D2E/DX2 analytically  !
 ! A121  A(54,60,59)           119.8927         calculate D2E/DX2 analytically  !
 ! A122  A(54,60,62)           120.1031         calculate D2E/DX2 analytically  !
 ! A123  A(59,60,62)           120.0034         calculate D2E/DX2 analytically  !
 ! A124  A(70,64,123)          108.1784         calculate D2E/DX2 analytically  !
 ! A125  A(70,64,124)          112.9468         calculate D2E/DX2 analytically  !
 ! A126  A(70,64,125)          113.0015         calculate D2E/DX2 analytically  !
 ! A127  A(123,64,124)         107.149          calculate D2E/DX2 analytically  !
 ! A128  A(123,64,125)         107.1342         calculate D2E/DX2 analytically  !
 ! A129  A(124,64,125)         108.1163         calculate D2E/DX2 analytically  !
 ! A130  A(21,65,72)           118.1881         calculate D2E/DX2 analytically  !
 ! A131  A(9,66,69)             99.5942         calculate D2E/DX2 analytically  !
 ! A132  A(9,66,126)           110.4241         calculate D2E/DX2 analytically  !
 ! A133  A(69,66,126)           98.3385         calculate D2E/DX2 analytically  !
 ! A134  A(5,68,78)            160.2588         calculate D2E/DX2 analytically  !
 ! A135  A(78,68,121)          106.0363         calculate D2E/DX2 analytically  !
 ! A136  A(64,70,80)           116.7283         calculate D2E/DX2 analytically  !
 ! A137  A(64,70,126)          108.5121         calculate D2E/DX2 analytically  !
 ! A138  A(64,70,127)          111.0721         calculate D2E/DX2 analytically  !
 ! A139  A(80,70,126)          105.8376         calculate D2E/DX2 analytically  !
 ! A140  A(80,70,127)          107.9728         calculate D2E/DX2 analytically  !
 ! A141  A(126,70,127)         106.0954         calculate D2E/DX2 analytically  !
 ! A142  A(25,71,72)           125.9889         calculate D2E/DX2 analytically  !
 ! A143  A(65,72,71)           107.6558         calculate D2E/DX2 analytically  !
 ! A144  A(65,72,74)           107.7581         calculate D2E/DX2 analytically  !
 ! A145  A(65,72,82)           112.7523         calculate D2E/DX2 analytically  !
 ! A146  A(71,72,74)           107.1559         calculate D2E/DX2 analytically  !
 ! A147  A(71,72,82)           108.703          calculate D2E/DX2 analytically  !
 ! A148  A(74,72,82)           112.56           calculate D2E/DX2 analytically  !
 ! A149  A(67,75,73)           106.2846         calculate D2E/DX2 analytically  !
 ! A150  A(67,75,76)           108.836          calculate D2E/DX2 analytically  !
 ! A151  A(67,75,86)           112.8877         calculate D2E/DX2 analytically  !
 ! A152  A(73,75,76)           108.9587         calculate D2E/DX2 analytically  !
 ! A153  A(73,75,86)           110.7542         calculate D2E/DX2 analytically  !
 ! A154  A(76,75,86)           109.0213         calculate D2E/DX2 analytically  !
 ! A155  A(68,78,87)            94.8314         calculate D2E/DX2 analytically  !
 ! A156  A(68,78,102)          107.0386         calculate D2E/DX2 analytically  !
 ! A157  A(87,78,95)            91.1571         calculate D2E/DX2 analytically  !
 ! A158  A(87,78,102)           80.6702         calculate D2E/DX2 analytically  !
 ! A159  A(95,78,102)           95.2271         calculate D2E/DX2 analytically  !
 ! A160  A(70,80,81)           108.6988         calculate D2E/DX2 analytically  !
 ! A161  A(70,80,93)           111.586          calculate D2E/DX2 analytically  !
 ! A162  A(81,80,93)           109.4512         calculate D2E/DX2 analytically  !
 ! A163  A(77,81,80)           106.3812         calculate D2E/DX2 analytically  !
 ! A164  A(77,81,88)           108.2687         calculate D2E/DX2 analytically  !
 ! A165  A(77,81,101)          107.2792         calculate D2E/DX2 analytically  !
 ! A166  A(80,81,88)           111.358          calculate D2E/DX2 analytically  !
 ! A167  A(80,81,101)          113.3166         calculate D2E/DX2 analytically  !
 ! A168  A(88,81,101)          109.972          calculate D2E/DX2 analytically  !
 ! A169  A(72,82,85)           108.8023         calculate D2E/DX2 analytically  !
 ! A170  A(72,82,87)           109.5808         calculate D2E/DX2 analytically  !
 ! A171  A(72,82,96)           110.0182         calculate D2E/DX2 analytically  !
 ! A172  A(85,82,87)           107.3143         calculate D2E/DX2 analytically  !
 ! A173  A(85,82,96)           107.1189         calculate D2E/DX2 analytically  !
 ! A174  A(87,82,96)           113.8386         calculate D2E/DX2 analytically  !
 ! A175  A(79,85,82)           111.5734         calculate D2E/DX2 analytically  !
 ! A176  A(79,85,83)           108.7137         calculate D2E/DX2 analytically  !
 ! A177  A(79,85,104)          109.617          calculate D2E/DX2 analytically  !
 ! A178  A(82,85,83)           107.8352         calculate D2E/DX2 analytically  !
 ! A179  A(82,85,104)          111.811          calculate D2E/DX2 analytically  !
 ! A180  A(83,85,104)          107.1279         calculate D2E/DX2 analytically  !
 ! A181  A(75,86,87)           105.6452         calculate D2E/DX2 analytically  !
 ! A182  A(75,86,89)           110.0305         calculate D2E/DX2 analytically  !
 ! A183  A(75,86,98)           108.7312         calculate D2E/DX2 analytically  !
 ! A184  A(87,86,89)           115.3957         calculate D2E/DX2 analytically  !
 ! A185  A(87,86,98)           109.6616         calculate D2E/DX2 analytically  !
 ! A186  A(89,86,98)           107.2437         calculate D2E/DX2 analytically  !
 ! A187  A(78,87,82)           115.1727         calculate D2E/DX2 analytically  !
 ! A188  A(78,87,86)           122.3382         calculate D2E/DX2 analytically  !
 ! A189  A(78,87,108)           97.9125         calculate D2E/DX2 analytically  !
 ! A190  A(82,87,86)           110.4081         calculate D2E/DX2 analytically  !
 ! A191  A(82,87,108)          102.5314         calculate D2E/DX2 analytically  !
 ! A192  A(86,87,108)          104.834          calculate D2E/DX2 analytically  !
 ! A193  A(84,89,86)           112.9346         calculate D2E/DX2 analytically  !
 ! A194  A(84,89,92)           107.1835         calculate D2E/DX2 analytically  !
 ! A195  A(84,89,106)          108.7458         calculate D2E/DX2 analytically  !
 ! A196  A(86,89,92)           108.2703         calculate D2E/DX2 analytically  !
 ! A197  A(86,89,106)          112.2501         calculate D2E/DX2 analytically  !
 ! A198  A(92,89,106)          107.1733         calculate D2E/DX2 analytically  !
 ! A199  A(80,93,90)           106.6516         calculate D2E/DX2 analytically  !
 ! A200  A(80,93,103)          113.35           calculate D2E/DX2 analytically  !
 ! A201  A(80,93,105)          109.3658         calculate D2E/DX2 analytically  !
 ! A202  A(90,93,103)          110.3677         calculate D2E/DX2 analytically  !
 ! A203  A(90,93,105)          106.8656         calculate D2E/DX2 analytically  !
 ! A204  A(103,93,105)         109.9916         calculate D2E/DX2 analytically  !
 ! A205  A(82,96,94)           107.8638         calculate D2E/DX2 analytically  !
 ! A206  A(82,96,99)           113.9419         calculate D2E/DX2 analytically  !
 ! A207  A(82,96,110)          112.2087         calculate D2E/DX2 analytically  !
 ! A208  A(94,96,99)           107.2598         calculate D2E/DX2 analytically  !
 ! A209  A(94,96,110)          106.6359         calculate D2E/DX2 analytically  !
 ! A210  A(99,96,110)          108.561          calculate D2E/DX2 analytically  !
 ! A211  A(86,98,97)           113.213          calculate D2E/DX2 analytically  !
 ! A212  A(86,98,100)          108.0424         calculate D2E/DX2 analytically  !
 ! A213  A(86,98,113)          112.1695         calculate D2E/DX2 analytically  !
 ! A214  A(97,98,100)          107.2672         calculate D2E/DX2 analytically  !
 ! A215  A(97,98,113)          108.9009         calculate D2E/DX2 analytically  !
 ! A216  A(100,98,113)         106.9387         calculate D2E/DX2 analytically  !
 ! A217  A(81,101,102)         113.8371         calculate D2E/DX2 analytically  !
 ! A218  A(81,101,112)         124.684          calculate D2E/DX2 analytically  !
 ! A219  A(102,101,112)        121.4079         calculate D2E/DX2 analytically  !
 ! A220  A(78,102,101)         116.5189         calculate D2E/DX2 analytically  !
 ! A221  A(78,102,111)         121.0409         calculate D2E/DX2 analytically  !
 ! A222  A(101,102,111)        121.0191         calculate D2E/DX2 analytically  !
 ! A223  A(91,103,93)          110.9805         calculate D2E/DX2 analytically  !
 ! A224  A(91,103,107)         107.9739         calculate D2E/DX2 analytically  !
 ! A225  A(91,103,109)         108.063          calculate D2E/DX2 analytically  !
 ! A226  A(93,103,107)         112.1984         calculate D2E/DX2 analytically  !
 ! A227  A(93,103,109)         109.5084         calculate D2E/DX2 analytically  !
 ! A228  A(107,103,109)        107.9815         calculate D2E/DX2 analytically  !
 ! A229  A(87,108,111)         111.5578         calculate D2E/DX2 analytically  !
 ! A230  A(87,108,115)         104.3541         calculate D2E/DX2 analytically  !
 ! A231  A(87,108,116)         114.6479         calculate D2E/DX2 analytically  !
 ! A232  A(111,108,115)        106.836          calculate D2E/DX2 analytically  !
 ! A233  A(111,108,116)        111.6796         calculate D2E/DX2 analytically  !
 ! A234  A(115,108,116)        107.0843         calculate D2E/DX2 analytically  !
 ! A235  A(102,111,108)        116.0808         calculate D2E/DX2 analytically  !
 ! A236  A(102,111,117)        120.2737         calculate D2E/DX2 analytically  !
 ! A237  A(108,111,117)        123.555          calculate D2E/DX2 analytically  !
 ! A238  A(101,112,114)        120.2056         calculate D2E/DX2 analytically  !
 ! A239  A(101,112,118)        118.5343         calculate D2E/DX2 analytically  !
 ! A240  A(114,112,118)        121.2534         calculate D2E/DX2 analytically  !
 ! A241  A(111,117,118)        119.3424         calculate D2E/DX2 analytically  !
 ! A242  A(111,117,119)        119.7713         calculate D2E/DX2 analytically  !
 ! A243  A(118,117,119)        120.8799         calculate D2E/DX2 analytically  !
 ! A244  A(112,118,117)        119.367          calculate D2E/DX2 analytically  !
 ! A245  A(112,118,120)        120.3657         calculate D2E/DX2 analytically  !
 ! A246  A(117,118,120)        120.2634         calculate D2E/DX2 analytically  !
 ! A247  A(66,126,70)           81.1822         calculate D2E/DX2 analytically  !
 ! A248  L(20,37,63,1,-1)      174.9195         calculate D2E/DX2 analytically  !
 ! A249  L(68,78,95,87,-1)     185.9884         calculate D2E/DX2 analytically  !
 ! A250  L(78,95,122,1,-1)     178.7758         calculate D2E/DX2 analytically  !
 ! A251  L(20,37,63,1,-2)      179.063          calculate D2E/DX2 analytically  !
 ! A252  L(68,78,95,87,-2)     158.3864         calculate D2E/DX2 analytically  !
 ! A253  L(78,95,122,1,-2)     177.0891         calculate D2E/DX2 analytically  !
 ! D1    D(1,2,10,12)          -64.5767         calculate D2E/DX2 analytically  !
 ! D2    D(1,2,10,16)           54.2048         calculate D2E/DX2 analytically  !
 ! D3    D(1,2,10,22)          172.2068         calculate D2E/DX2 analytically  !
 ! D4    D(3,2,10,12)           54.772          calculate D2E/DX2 analytically  !
 ! D5    D(3,2,10,16)          173.5534         calculate D2E/DX2 analytically  !
 ! D6    D(3,2,10,22)          -68.4446         calculate D2E/DX2 analytically  !
 ! D7    D(4,2,10,12)          177.5909         calculate D2E/DX2 analytically  !
 ! D8    D(4,2,10,16)          -63.6277         calculate D2E/DX2 analytically  !
 ! D9    D(4,2,10,22)           54.3744         calculate D2E/DX2 analytically  !
 ! D10   D(68,5,13,11)         -87.6583         calculate D2E/DX2 analytically  !
 ! D11   D(68,5,13,15)          27.5289         calculate D2E/DX2 analytically  !
 ! D12   D(68,5,13,24)         152.468          calculate D2E/DX2 analytically  !
 ! D13   D(121,5,13,11)       -140.1811         calculate D2E/DX2 analytically  !
 ! D14   D(121,5,13,15)        -24.9939         calculate D2E/DX2 analytically  !
 ! D15   D(121,5,13,24)         99.9452         calculate D2E/DX2 analytically  !
 ! D16   D(13,5,68,78)          91.2924         calculate D2E/DX2 analytically  !
 ! D17   D(20,6,8,128)         101.1242         calculate D2E/DX2 analytically  !
 ! D18   D(8,6,20,29)         -113.0917         calculate D2E/DX2 analytically  !
 ! D19   D(8,6,20,37)           16.6678         calculate D2E/DX2 analytically  !
 ! D20   D(8,6,20,44)          166.4994         calculate D2E/DX2 analytically  !
 ! D21   D(2,10,22,23)         178.5453         calculate D2E/DX2 analytically  !
 ! D22   D(2,10,22,35)          55.7243         calculate D2E/DX2 analytically  !
 ! D23   D(12,10,22,23)         54.7273         calculate D2E/DX2 analytically  !
 ! D24   D(12,10,22,35)        -68.0938         calculate D2E/DX2 analytically  !
 ! D25   D(16,10,22,23)        -61.2346         calculate D2E/DX2 analytically  !
 ! D26   D(16,10,22,35)        175.9443         calculate D2E/DX2 analytically  !
 ! D27   D(5,13,24,27)          67.1476         calculate D2E/DX2 analytically  !
 ! D28   D(5,13,24,29)         -50.3741         calculate D2E/DX2 analytically  !
 ! D29   D(5,13,24,38)        -176.153          calculate D2E/DX2 analytically  !
 ! D30   D(11,13,24,27)        -52.0904         calculate D2E/DX2 analytically  !
 ! D31   D(11,13,24,29)       -169.6121         calculate D2E/DX2 analytically  !
 ! D32   D(11,13,24,38)         64.609          calculate D2E/DX2 analytically  !
 ! D33   D(15,13,24,27)       -170.0819         calculate D2E/DX2 analytically  !
 ! D34   D(15,13,24,29)         72.3965         calculate D2E/DX2 analytically  !
 ! D35   D(15,13,24,38)        -53.3825         calculate D2E/DX2 analytically  !
 ! D36   D(7,17,28,29)         -63.2653         calculate D2E/DX2 analytically  !
 ! D37   D(7,17,28,31)          62.3399         calculate D2E/DX2 analytically  !
 ! D38   D(7,17,28,40)         179.6146         calculate D2E/DX2 analytically  !
 ! D39   D(14,17,28,29)         56.9944         calculate D2E/DX2 analytically  !
 ! D40   D(14,17,28,31)       -177.4004         calculate D2E/DX2 analytically  !
 ! D41   D(14,17,28,40)        -60.1257         calculate D2E/DX2 analytically  !
 ! D42   D(18,17,28,29)        176.9599         calculate D2E/DX2 analytically  !
 ! D43   D(18,17,28,31)        -57.4349         calculate D2E/DX2 analytically  !
 ! D44   D(18,17,28,40)         59.8397         calculate D2E/DX2 analytically  !
 ! D45   D(6,20,29,24)         -17.3246         calculate D2E/DX2 analytically  !
 ! D46   D(6,20,29,28)         123.4093         calculate D2E/DX2 analytically  !
 ! D47   D(6,20,29,50)        -124.2827         calculate D2E/DX2 analytically  !
 ! D48   D(37,20,29,24)        175.0441         calculate D2E/DX2 analytically  !
 ! D49   D(37,20,29,28)        -44.2219         calculate D2E/DX2 analytically  !
 ! D50   D(37,20,29,50)         68.086          calculate D2E/DX2 analytically  !
 ! D51   D(44,20,29,24)         76.2987         calculate D2E/DX2 analytically  !
 ! D52   D(44,20,29,28)       -142.9674         calculate D2E/DX2 analytically  !
 ! D53   D(44,20,29,50)        -30.6595         calculate D2E/DX2 analytically  !
 ! D54   D(6,20,44,43)         -63.4215         calculate D2E/DX2 analytically  !
 ! D55   D(6,20,44,53)         120.8128         calculate D2E/DX2 analytically  !
 ! D56   D(29,20,44,43)       -159.2552         calculate D2E/DX2 analytically  !
 ! D57   D(29,20,44,53)         24.9791         calculate D2E/DX2 analytically  !
 ! D58   D(37,20,44,43)        108.4402         calculate D2E/DX2 analytically  !
 ! D59   D(37,20,44,53)        -67.3255         calculate D2E/DX2 analytically  !
 ! D60   D(65,21,27,24)         74.5508         calculate D2E/DX2 analytically  !
 ! D61   D(65,21,27,25)        -44.0085         calculate D2E/DX2 analytically  !
 ! D62   D(65,21,27,46)       -160.8066         calculate D2E/DX2 analytically  !
 ! D63   D(27,21,65,72)         61.3921         calculate D2E/DX2 analytically  !
 ! D64   D(10,22,23,19)         53.443          calculate D2E/DX2 analytically  !
 ! D65   D(10,22,23,30)        -64.678          calculate D2E/DX2 analytically  !
 ! D66   D(10,22,23,43)        169.8122         calculate D2E/DX2 analytically  !
 ! D67   D(35,22,23,19)        177.3786         calculate D2E/DX2 analytically  !
 ! D68   D(35,22,23,30)         59.2575         calculate D2E/DX2 analytically  !
 ! D69   D(35,22,23,43)        -66.2522         calculate D2E/DX2 analytically  !
 ! D70   D(10,22,35,32)        -66.5975         calculate D2E/DX2 analytically  !
 ! D71   D(10,22,35,45)         57.0089         calculate D2E/DX2 analytically  !
 ! D72   D(10,22,35,47)       -179.6239         calculate D2E/DX2 analytically  !
 ! D73   D(23,22,35,32)        172.4456         calculate D2E/DX2 analytically  !
 ! D74   D(23,22,35,45)        -63.9481         calculate D2E/DX2 analytically  !
 ! D75   D(23,22,35,47)         59.4191         calculate D2E/DX2 analytically  !
 ! D76   D(19,23,43,44)         72.3373         calculate D2E/DX2 analytically  !
 ! D77   D(19,23,43,54)       -104.8152         calculate D2E/DX2 analytically  !
 ! D78   D(22,23,43,44)        -42.4285         calculate D2E/DX2 analytically  !
 ! D79   D(22,23,43,54)        140.4191         calculate D2E/DX2 analytically  !
 ! D80   D(30,23,43,44)       -168.3904         calculate D2E/DX2 analytically  !
 ! D81   D(30,23,43,54)         14.4571         calculate D2E/DX2 analytically  !
 ! D82   D(13,24,27,21)        -60.2834         calculate D2E/DX2 analytically  !
 ! D83   D(13,24,27,25)         59.0306         calculate D2E/DX2 analytically  !
 ! D84   D(13,24,27,46)        176.4467         calculate D2E/DX2 analytically  !
 ! D85   D(29,24,27,21)         57.9152         calculate D2E/DX2 analytically  !
 ! D86   D(29,24,27,25)        177.2293         calculate D2E/DX2 analytically  !
 ! D87   D(29,24,27,46)        -65.3547         calculate D2E/DX2 analytically  !
 ! D88   D(38,24,27,21)       -179.1463         calculate D2E/DX2 analytically  !
 ! D89   D(38,24,27,25)        -59.8323         calculate D2E/DX2 analytically  !
 ! D90   D(38,24,27,46)         57.5838         calculate D2E/DX2 analytically  !
 ! D91   D(13,24,29,20)         88.4945         calculate D2E/DX2 analytically  !
 ! D92   D(13,24,29,28)        -56.9293         calculate D2E/DX2 analytically  !
 ! D93   D(13,24,29,50)       -167.4585         calculate D2E/DX2 analytically  !
 ! D94   D(27,24,29,20)        -29.1439         calculate D2E/DX2 analytically  !
 ! D95   D(27,24,29,28)       -174.5677         calculate D2E/DX2 analytically  !
 ! D96   D(27,24,29,50)         74.9031         calculate D2E/DX2 analytically  !
 ! D97   D(38,24,29,20)       -147.7802         calculate D2E/DX2 analytically  !
 ! D98   D(38,24,29,28)         66.796          calculate D2E/DX2 analytically  !
 ! D99   D(38,24,29,50)        -43.7332         calculate D2E/DX2 analytically  !
 ! D100  D(13,24,38,36)        -56.6348         calculate D2E/DX2 analytically  !
 ! D101  D(13,24,38,41)         62.5587         calculate D2E/DX2 analytically  !
 ! D102  D(13,24,38,52)       -173.5834         calculate D2E/DX2 analytically  !
 ! D103  D(27,24,38,36)         60.9257         calculate D2E/DX2 analytically  !
 ! D104  D(27,24,38,41)       -179.8808         calculate D2E/DX2 analytically  !
 ! D105  D(27,24,38,52)        -56.0229         calculate D2E/DX2 analytically  !
 ! D106  D(29,24,38,36)       -179.7513         calculate D2E/DX2 analytically  !
 ! D107  D(29,24,38,41)        -60.5578         calculate D2E/DX2 analytically  !
 ! D108  D(29,24,38,52)         63.3001         calculate D2E/DX2 analytically  !
 ! D109  D(71,25,27,21)         19.7251         calculate D2E/DX2 analytically  !
 ! D110  D(71,25,27,24)       -101.0524         calculate D2E/DX2 analytically  !
 ! D111  D(71,25,27,46)        138.2449         calculate D2E/DX2 analytically  !
 ! D112  D(27,25,71,72)         -5.6745         calculate D2E/DX2 analytically  !
 ! D113  D(17,28,29,20)        -56.182          calculate D2E/DX2 analytically  !
 ! D114  D(17,28,29,24)         87.4163         calculate D2E/DX2 analytically  !
 ! D115  D(17,28,29,50)       -164.2159         calculate D2E/DX2 analytically  !
 ! D116  D(31,28,29,20)       -178.0706         calculate D2E/DX2 analytically  !
 ! D117  D(31,28,29,24)        -34.4723         calculate D2E/DX2 analytically  !
 ! D118  D(31,28,29,50)         73.8956         calculate D2E/DX2 analytically  !
 ! D119  D(40,28,29,20)         60.492          calculate D2E/DX2 analytically  !
 ! D120  D(40,28,29,24)       -155.9097         calculate D2E/DX2 analytically  !
 ! D121  D(40,28,29,50)        -47.5418         calculate D2E/DX2 analytically  !
 ! D122  D(17,28,31,26)        -55.4784         calculate D2E/DX2 analytically  !
 ! D123  D(17,28,31,34)         63.2067         calculate D2E/DX2 analytically  !
 ! D124  D(17,28,31,48)       -178.5688         calculate D2E/DX2 analytically  !
 ! D125  D(29,28,31,26)         64.2822         calculate D2E/DX2 analytically  !
 ! D126  D(29,28,31,34)       -177.0327         calculate D2E/DX2 analytically  !
 ! D127  D(29,28,31,48)        -58.8083         calculate D2E/DX2 analytically  !
 ! D128  D(40,28,31,26)       -173.3854         calculate D2E/DX2 analytically  !
 ! D129  D(40,28,31,34)        -54.7003         calculate D2E/DX2 analytically  !
 ! D130  D(40,28,31,48)         63.5242         calculate D2E/DX2 analytically  !
 ! D131  D(17,28,40,39)         62.2774         calculate D2E/DX2 analytically  !
 ! D132  D(17,28,40,42)        -56.6922         calculate D2E/DX2 analytically  !
 ! D133  D(17,28,40,55)       -174.5222         calculate D2E/DX2 analytically  !
 ! D134  D(29,28,40,39)        -52.6948         calculate D2E/DX2 analytically  !
 ! D135  D(29,28,40,42)       -171.6644         calculate D2E/DX2 analytically  !
 ! D136  D(29,28,40,55)         70.5057         calculate D2E/DX2 analytically  !
 ! D137  D(31,28,40,39)       -178.9874         calculate D2E/DX2 analytically  !
 ! D138  D(31,28,40,42)         62.043          calculate D2E/DX2 analytically  !
 ! D139  D(31,28,40,55)        -55.787          calculate D2E/DX2 analytically  !
 ! D140  D(20,29,50,53)         40.7158         calculate D2E/DX2 analytically  !
 ! D141  D(20,29,50,57)        -74.3001         calculate D2E/DX2 analytically  !
 ! D142  D(20,29,50,58)        167.8065         calculate D2E/DX2 analytically  !
 ! D143  D(24,29,50,53)        -79.5013         calculate D2E/DX2 analytically  !
 ! D144  D(24,29,50,57)        165.4828         calculate D2E/DX2 analytically  !
 ! D145  D(24,29,50,58)         47.5894         calculate D2E/DX2 analytically  !
 ! D146  D(28,29,50,53)        166.6221         calculate D2E/DX2 analytically  !
 ! D147  D(28,29,50,57)         51.6062         calculate D2E/DX2 analytically  !
 ! D148  D(28,29,50,58)        -66.2872         calculate D2E/DX2 analytically  !
 ! D149  D(22,35,45,33)        -61.4128         calculate D2E/DX2 analytically  !
 ! D150  D(22,35,45,49)         61.1543         calculate D2E/DX2 analytically  !
 ! D151  D(22,35,45,51)        179.8248         calculate D2E/DX2 analytically  !
 ! D152  D(32,35,45,33)         60.6645         calculate D2E/DX2 analytically  !
 ! D153  D(32,35,45,49)       -176.7683         calculate D2E/DX2 analytically  !
 ! D154  D(32,35,45,51)        -58.0979         calculate D2E/DX2 analytically  !
 ! D155  D(47,35,45,33)        176.9283         calculate D2E/DX2 analytically  !
 ! D156  D(47,35,45,49)        -60.5045         calculate D2E/DX2 analytically  !
 ! D157  D(47,35,45,51)         58.1659         calculate D2E/DX2 analytically  !
 ! D158  D(23,43,44,20)          6.9792         calculate D2E/DX2 analytically  !
 ! D159  D(23,43,44,53)       -177.2823         calculate D2E/DX2 analytically  !
 ! D160  D(54,43,44,20)       -175.7093         calculate D2E/DX2 analytically  !
 ! D161  D(54,43,44,53)          0.0292         calculate D2E/DX2 analytically  !
 ! D162  D(23,43,54,56)         -3.2274         calculate D2E/DX2 analytically  !
 ! D163  D(23,43,54,60)        176.1233         calculate D2E/DX2 analytically  !
 ! D164  D(44,43,54,56)        179.8117         calculate D2E/DX2 analytically  !
 ! D165  D(44,43,54,60)         -0.8376         calculate D2E/DX2 analytically  !
 ! D166  D(20,44,53,50)         -2.7315         calculate D2E/DX2 analytically  !
 ! D167  D(20,44,53,59)        176.327          calculate D2E/DX2 analytically  !
 ! D168  D(43,44,53,50)       -178.2495         calculate D2E/DX2 analytically  !
 ! D169  D(43,44,53,59)          0.809          calculate D2E/DX2 analytically  !
 ! D170  D(29,50,53,44)        -28.0727         calculate D2E/DX2 analytically  !
 ! D171  D(29,50,53,59)        152.9212         calculate D2E/DX2 analytically  !
 ! D172  D(57,50,53,44)         84.9013         calculate D2E/DX2 analytically  !
 ! D173  D(57,50,53,59)        -94.1048         calculate D2E/DX2 analytically  !
 ! D174  D(58,50,53,44)       -156.968          calculate D2E/DX2 analytically  !
 ! D175  D(58,50,53,59)         24.026          calculate D2E/DX2 analytically  !
 ! D176  D(44,53,59,60)         -0.8081         calculate D2E/DX2 analytically  !
 ! D177  D(44,53,59,61)        179.4322         calculate D2E/DX2 analytically  !
 ! D178  D(50,53,59,60)        178.1553         calculate D2E/DX2 analytically  !
 ! D179  D(50,53,59,61)         -1.6044         calculate D2E/DX2 analytically  !
 ! D180  D(43,54,60,59)          0.8059         calculate D2E/DX2 analytically  !
 ! D181  D(43,54,60,62)       -179.5085         calculate D2E/DX2 analytically  !
 ! D182  D(56,54,60,59)       -179.8494         calculate D2E/DX2 analytically  !
 ! D183  D(56,54,60,62)         -0.1638         calculate D2E/DX2 analytically  !
 ! D184  D(53,59,60,54)         -0.003          calculate D2E/DX2 analytically  !
 ! D185  D(53,59,60,62)       -179.6889         calculate D2E/DX2 analytically  !
 ! D186  D(61,59,60,54)        179.7545         calculate D2E/DX2 analytically  !
 ! D187  D(61,59,60,62)          0.0687         calculate D2E/DX2 analytically  !
 ! D188  D(123,64,70,80)      -177.7997         calculate D2E/DX2 analytically  !
 ! D189  D(123,64,70,126)      -58.4037         calculate D2E/DX2 analytically  !
 ! D190  D(123,64,70,127)       57.849          calculate D2E/DX2 analytically  !
 ! D191  D(124,64,70,80)        63.7733         calculate D2E/DX2 analytically  !
 ! D192  D(124,64,70,126)     -176.8307         calculate D2E/DX2 analytically  !
 ! D193  D(124,64,70,127)      -60.578          calculate D2E/DX2 analytically  !
 ! D194  D(125,64,70,80)       -59.358          calculate D2E/DX2 analytically  !
 ! D195  D(125,64,70,126)       60.038          calculate D2E/DX2 analytically  !
 ! D196  D(125,64,70,127)      176.2906         calculate D2E/DX2 analytically  !
 ! D197  D(21,65,72,71)        -30.0724         calculate D2E/DX2 analytically  !
 ! D198  D(21,65,72,74)         85.2034         calculate D2E/DX2 analytically  !
 ! D199  D(21,65,72,82)       -149.9662         calculate D2E/DX2 analytically  !
 ! D200  D(9,66,69,126)       -112.487          calculate D2E/DX2 analytically  !
 ! D201  D(9,66,126,70)       -137.1589         calculate D2E/DX2 analytically  !
 ! D202  D(69,66,126,70)       119.289          calculate D2E/DX2 analytically  !
 ! D203  D(5,68,78,87)          23.5106         calculate D2E/DX2 analytically  !
 ! D204  D(5,68,78,102)        -58.195          calculate D2E/DX2 analytically  !
 ! D205  D(121,68,78,87)      -159.6769         calculate D2E/DX2 analytically  !
 ! D206  D(121,68,78,102)      118.6176         calculate D2E/DX2 analytically  !
 ! D207  D(64,70,80,81)         66.8736         calculate D2E/DX2 analytically  !
 ! D208  D(64,70,80,93)        -53.9225         calculate D2E/DX2 analytically  !
 ! D209  D(126,70,80,81)       -53.9481         calculate D2E/DX2 analytically  !
 ! D210  D(126,70,80,93)      -174.7442         calculate D2E/DX2 analytically  !
 ! D211  D(127,70,80,81)      -167.2131         calculate D2E/DX2 analytically  !
 ! D212  D(127,70,80,93)        71.9908         calculate D2E/DX2 analytically  !
 ! D213  D(64,70,126,66)       123.9942         calculate D2E/DX2 analytically  !
 ! D214  D(80,70,126,66)      -109.9905         calculate D2E/DX2 analytically  !
 ! D215  D(127,70,126,66)        4.5718         calculate D2E/DX2 analytically  !
 ! D216  D(25,71,72,65)         18.4574         calculate D2E/DX2 analytically  !
 ! D217  D(25,71,72,74)        -97.2159         calculate D2E/DX2 analytically  !
 ! D218  D(25,71,72,82)        140.8859         calculate D2E/DX2 analytically  !
 ! D219  D(65,72,82,85)         63.4096         calculate D2E/DX2 analytically  !
 ! D220  D(65,72,82,87)        -53.6423         calculate D2E/DX2 analytically  !
 ! D221  D(65,72,82,96)       -179.5263         calculate D2E/DX2 analytically  !
 ! D222  D(71,72,82,85)        -55.8787         calculate D2E/DX2 analytically  !
 ! D223  D(71,72,82,87)       -172.9305         calculate D2E/DX2 analytically  !
 ! D224  D(71,72,82,96)         61.1855         calculate D2E/DX2 analytically  !
 ! D225  D(74,72,82,85)       -174.4247         calculate D2E/DX2 analytically  !
 ! D226  D(74,72,82,87)         68.5234         calculate D2E/DX2 analytically  !
 ! D227  D(74,72,82,96)        -57.3606         calculate D2E/DX2 analytically  !
 ! D228  D(67,75,86,87)        -59.0833         calculate D2E/DX2 analytically  !
 ! D229  D(67,75,86,89)         66.0965         calculate D2E/DX2 analytically  !
 ! D230  D(67,75,86,98)       -176.7233         calculate D2E/DX2 analytically  !
 ! D231  D(73,75,86,87)         59.96           calculate D2E/DX2 analytically  !
 ! D232  D(73,75,86,89)       -174.8602         calculate D2E/DX2 analytically  !
 ! D233  D(73,75,86,98)        -57.6799         calculate D2E/DX2 analytically  !
 ! D234  D(76,75,86,87)        179.8369         calculate D2E/DX2 analytically  !
 ! D235  D(76,75,86,89)        -54.9833         calculate D2E/DX2 analytically  !
 ! D236  D(76,75,86,98)         62.1969         calculate D2E/DX2 analytically  !
 ! D237  D(68,78,87,82)        -26.3312         calculate D2E/DX2 analytically  !
 ! D238  D(68,78,87,86)        112.5695         calculate D2E/DX2 analytically  !
 ! D239  D(68,78,87,108)      -134.2319         calculate D2E/DX2 analytically  !
 ! D240  D(95,78,87,82)        175.2824         calculate D2E/DX2 analytically  !
 ! D241  D(95,78,87,86)        -45.817          calculate D2E/DX2 analytically  !
 ! D242  D(95,78,87,108)        67.3816         calculate D2E/DX2 analytically  !
 ! D243  D(102,78,87,82)        80.1748         calculate D2E/DX2 analytically  !
 ! D244  D(102,78,87,86)      -140.9245         calculate D2E/DX2 analytically  !
 ! D245  D(102,78,87,108)      -27.7259         calculate D2E/DX2 analytically  !
 ! D246  D(68,78,102,101)      -75.5273         calculate D2E/DX2 analytically  !
 ! D247  D(68,78,102,111)      117.9443         calculate D2E/DX2 analytically  !
 ! D248  D(87,78,102,101)     -167.7579         calculate D2E/DX2 analytically  !
 ! D249  D(87,78,102,111)       25.7137         calculate D2E/DX2 analytically  !
 ! D250  D(95,78,102,101)      101.9259         calculate D2E/DX2 analytically  !
 ! D251  D(95,78,102,111)      -64.6025         calculate D2E/DX2 analytically  !
 ! D252  D(70,80,81,77)         47.9219         calculate D2E/DX2 analytically  !
 ! D253  D(70,80,81,88)        -69.8391         calculate D2E/DX2 analytically  !
 ! D254  D(70,80,81,101)       165.5563         calculate D2E/DX2 analytically  !
 ! D255  D(93,80,81,77)        170.0245         calculate D2E/DX2 analytically  !
 ! D256  D(93,80,81,88)         52.2635         calculate D2E/DX2 analytically  !
 ! D257  D(93,80,81,101)       -72.3412         calculate D2E/DX2 analytically  !
 ! D258  D(70,80,93,90)       -175.1932         calculate D2E/DX2 analytically  !
 ! D259  D(70,80,93,103)       -53.5381         calculate D2E/DX2 analytically  !
 ! D260  D(70,80,93,105)        69.5856         calculate D2E/DX2 analytically  !
 ! D261  D(81,80,93,90)         64.451          calculate D2E/DX2 analytically  !
 ! D262  D(81,80,93,103)      -173.8939         calculate D2E/DX2 analytically  !
 ! D263  D(81,80,93,105)       -50.7702         calculate D2E/DX2 analytically  !
 ! D264  D(77,81,101,102)       73.0526         calculate D2E/DX2 analytically  !
 ! D265  D(77,81,101,112)     -103.9097         calculate D2E/DX2 analytically  !
 ! D266  D(80,81,101,102)      -44.0571         calculate D2E/DX2 analytically  !
 ! D267  D(80,81,101,112)      138.9806         calculate D2E/DX2 analytically  !
 ! D268  D(88,81,101,102)     -169.409          calculate D2E/DX2 analytically  !
 ! D269  D(88,81,101,112)       13.6287         calculate D2E/DX2 analytically  !
 ! D270  D(72,82,85,79)        -60.8627         calculate D2E/DX2 analytically  !
 ! D271  D(72,82,85,83)         58.4542         calculate D2E/DX2 analytically  !
 ! D272  D(72,82,85,104)       175.9697         calculate D2E/DX2 analytically  !
 ! D273  D(87,82,85,79)         57.6251         calculate D2E/DX2 analytically  !
 ! D274  D(87,82,85,83)        176.942          calculate D2E/DX2 analytically  !
 ! D275  D(87,82,85,104)       -65.5426         calculate D2E/DX2 analytically  !
 ! D276  D(96,82,85,79)       -179.7603         calculate D2E/DX2 analytically  !
 ! D277  D(96,82,85,83)        -60.4433         calculate D2E/DX2 analytically  !
 ! D278  D(96,82,85,104)        57.0721         calculate D2E/DX2 analytically  !
 ! D279  D(72,82,87,78)         85.1728         calculate D2E/DX2 analytically  !
 ! D280  D(72,82,87,86)        -58.4848         calculate D2E/DX2 analytically  !
 ! D281  D(72,82,87,108)      -169.7404         calculate D2E/DX2 analytically  !
 ! D282  D(85,82,87,78)        -32.8103         calculate D2E/DX2 analytically  !
 ! D283  D(85,82,87,86)       -176.4679         calculate D2E/DX2 analytically  !
 ! D284  D(85,82,87,108)        72.2765         calculate D2E/DX2 analytically  !
 ! D285  D(96,82,87,78)       -151.1585         calculate D2E/DX2 analytically  !
 ! D286  D(96,82,87,86)         65.1839         calculate D2E/DX2 analytically  !
 ! D287  D(96,82,87,108)       -46.0717         calculate D2E/DX2 analytically  !
 ! D288  D(72,82,96,94)        -58.8965         calculate D2E/DX2 analytically  !
 ! D289  D(72,82,96,99)         60.0626         calculate D2E/DX2 analytically  !
 ! D290  D(72,82,96,110)      -176.0565         calculate D2E/DX2 analytically  !
 ! D291  D(85,82,96,94)         59.212          calculate D2E/DX2 analytically  !
 ! D292  D(85,82,96,99)        178.1712         calculate D2E/DX2 analytically  !
 ! D293  D(85,82,96,110)       -57.9479         calculate D2E/DX2 analytically  !
 ! D294  D(87,82,96,94)        177.6722         calculate D2E/DX2 analytically  !
 ! D295  D(87,82,96,99)        -63.3686         calculate D2E/DX2 analytically  !
 ! D296  D(87,82,96,110)        60.5122         calculate D2E/DX2 analytically  !
 ! D297  D(75,86,87,78)        -48.2458         calculate D2E/DX2 analytically  !
 ! D298  D(75,86,87,82)         92.3506         calculate D2E/DX2 analytically  !
 ! D299  D(75,86,87,108)      -157.8928         calculate D2E/DX2 analytically  !
 ! D300  D(89,86,87,78)       -170.0287         calculate D2E/DX2 analytically  !
 ! D301  D(89,86,87,82)        -29.4324         calculate D2E/DX2 analytically  !
 ! D302  D(89,86,87,108)        80.3243         calculate D2E/DX2 analytically  !
 ! D303  D(98,86,87,78)         68.7673         calculate D2E/DX2 analytically  !
 ! D304  D(98,86,87,82)       -150.6363         calculate D2E/DX2 analytically  !
 ! D305  D(98,86,87,108)       -40.8797         calculate D2E/DX2 analytically  !
 ! D306  D(75,86,89,84)        -56.3436         calculate D2E/DX2 analytically  !
 ! D307  D(75,86,89,92)         62.1796         calculate D2E/DX2 analytically  !
 ! D308  D(75,86,89,106)      -179.72           calculate D2E/DX2 analytically  !
 ! D309  D(87,86,89,84)         63.0513         calculate D2E/DX2 analytically  !
 ! D310  D(87,86,89,92)       -178.4254         calculate D2E/DX2 analytically  !
 ! D311  D(87,86,89,106)       -60.325          calculate D2E/DX2 analytically  !
 ! D312  D(98,86,89,84)       -174.4461         calculate D2E/DX2 analytically  !
 ! D313  D(98,86,89,92)        -55.9228         calculate D2E/DX2 analytically  !
 ! D314  D(98,86,89,106)        62.1776         calculate D2E/DX2 analytically  !
 ! D315  D(75,86,98,97)         63.8199         calculate D2E/DX2 analytically  !
 ! D316  D(75,86,98,100)       -54.8248         calculate D2E/DX2 analytically  !
 ! D317  D(75,86,98,113)      -172.4448         calculate D2E/DX2 analytically  !
 ! D318  D(87,86,98,97)        -51.2388         calculate D2E/DX2 analytically  !
 ! D319  D(87,86,98,100)      -169.8835         calculate D2E/DX2 analytically  !
 ! D320  D(87,86,98,113)        72.4964         calculate D2E/DX2 analytically  !
 ! D321  D(89,86,98,97)       -177.2366         calculate D2E/DX2 analytically  !
 ! D322  D(89,86,98,100)        64.1187         calculate D2E/DX2 analytically  !
 ! D323  D(89,86,98,113)       -53.5013         calculate D2E/DX2 analytically  !
 ! D324  D(78,87,108,111)       34.108          calculate D2E/DX2 analytically  !
 ! D325  D(78,87,108,115)      -80.888          calculate D2E/DX2 analytically  !
 ! D326  D(78,87,108,116)      162.3            calculate D2E/DX2 analytically  !
 ! D327  D(82,87,108,111)      -83.9788         calculate D2E/DX2 analytically  !
 ! D328  D(82,87,108,115)      161.0252         calculate D2E/DX2 analytically  !
 ! D329  D(82,87,108,116)       44.2131         calculate D2E/DX2 analytically  !
 ! D330  D(86,87,108,111)      160.6553         calculate D2E/DX2 analytically  !
 ! D331  D(86,87,108,115)       45.6593         calculate D2E/DX2 analytically  !
 ! D332  D(86,87,108,116)      -71.1527         calculate D2E/DX2 analytically  !
 ! D333  D(80,93,103,91)       -46.6155         calculate D2E/DX2 analytically  !
 ! D334  D(80,93,103,107)       74.2772         calculate D2E/DX2 analytically  !
 ! D335  D(80,93,103,109)     -165.8353         calculate D2E/DX2 analytically  !
 ! D336  D(90,93,103,91)        72.9357         calculate D2E/DX2 analytically  !
 ! D337  D(90,93,103,107)     -166.1716         calculate D2E/DX2 analytically  !
 ! D338  D(90,93,103,109)      -46.2841         calculate D2E/DX2 analytically  !
 ! D339  D(105,93,103,91)     -169.3939         calculate D2E/DX2 analytically  !
 ! D340  D(105,93,103,107)     -48.5012         calculate D2E/DX2 analytically  !
 ! D341  D(105,93,103,109)      71.3863         calculate D2E/DX2 analytically  !
 ! D342  D(81,101,102,78)       15.9778         calculate D2E/DX2 analytically  !
 ! D343  D(81,101,102,111)    -177.4906         calculate D2E/DX2 analytically  !
 ! D344  D(112,101,102,78)    -166.9488         calculate D2E/DX2 analytically  !
 ! D345  D(112,101,102,111)     -0.4173         calculate D2E/DX2 analytically  !
 ! D346  D(81,101,112,114)      -3.8688         calculate D2E/DX2 analytically  !
 ! D347  D(81,101,112,118)     175.2002         calculate D2E/DX2 analytically  !
 ! D348  D(102,101,112,114)    179.387          calculate D2E/DX2 analytically  !
 ! D349  D(102,101,112,118)     -1.5439         calculate D2E/DX2 analytically  !
 ! D350  D(78,102,111,108)      -8.4691         calculate D2E/DX2 analytically  !
 ! D351  D(78,102,111,117)     168.1917         calculate D2E/DX2 analytically  !
 ! D352  D(101,102,111,108)   -174.3915         calculate D2E/DX2 analytically  !
 ! D353  D(101,102,111,117)      2.2694         calculate D2E/DX2 analytically  !
 ! D354  D(87,108,111,102)     -19.8706         calculate D2E/DX2 analytically  !
 ! D355  D(87,108,111,117)     163.5899         calculate D2E/DX2 analytically  !
 ! D356  D(115,108,111,102)     93.5857         calculate D2E/DX2 analytically  !
 ! D357  D(115,108,111,117)    -82.9537         calculate D2E/DX2 analytically  !
 ! D358  D(116,108,111,102)   -149.6325         calculate D2E/DX2 analytically  !
 ! D359  D(116,108,111,117)     33.8281         calculate D2E/DX2 analytically  !
 ! D360  D(102,111,117,118)     -2.1153         calculate D2E/DX2 analytically  !
 ! D361  D(102,111,117,119)    178.798          calculate D2E/DX2 analytically  !
 ! D362  D(108,111,117,118)    174.2855         calculate D2E/DX2 analytically  !
 ! D363  D(108,111,117,119)     -4.8012         calculate D2E/DX2 analytically  !
 ! D364  D(101,112,118,117)      1.6268         calculate D2E/DX2 analytically  !
 ! D365  D(101,112,118,120)   -179.089          calculate D2E/DX2 analytically  !
 ! D366  D(114,112,118,117)   -179.3143         calculate D2E/DX2 analytically  !
 ! D367  D(114,112,118,120)     -0.0302         calculate D2E/DX2 analytically  !
 ! D368  D(111,117,118,112)      0.1486         calculate D2E/DX2 analytically  !
 ! D369  D(111,117,118,120)   -179.1363         calculate D2E/DX2 analytically  !
 ! D370  D(119,117,118,112)    179.2249         calculate D2E/DX2 analytically  !
 ! D371  D(119,117,118,120)     -0.06           calculate D2E/DX2 analytically  !
 --------------------------------------------------------------------------------
 Trust Radius=3.00D-01 FncErr=1.00D-07 GrdErr=1.00D-07 EigMax=2.50D+02 EigMin=1.00D-04
 Number of steps in this run=      2 maximum allowed number of steps=      2.
 GradGradGradGradGradGradGradGradGradGradGradGradGradGradGradGradGradGrad

 Stoichiometry    C40H74N4O6P2Ru2(3)
 Framework group  C1[X(C40H74N4O6P2Ru2)]
 Deg. of freedom   378
 Full point group                 C1      NOp   1
 Largest Abelian subgroup         C1      NOp   1
 Largest concise Abelian subgroup C1      NOp   1
                         Standard orientation:                         
 ---------------------------------------------------------------------
 Center     Atomic      Atomic             Coordinates (Angstroms)
 Number     Number       Type             X           Y           Z
 ---------------------------------------------------------------------
      1          1           0       -0.896634    2.642960    3.714607
      2          6           0       -1.820509    2.116444    3.433224
      3          1           0       -2.520551    2.201599    4.278641
      4          1           0       -1.561646    1.057568    3.290413
      5          1           0       -0.287676   -1.170467   -1.923574
      6          8           0       -1.547929    1.149401   -0.368047
      7          1           0       -0.465054   -3.212523   -0.627480
      8          8           0       -0.384950    1.092686    0.488596
      9          1           0       -1.305707   -1.134138    2.371142
     10          6           0       -2.356896    2.723040    2.155473
     11          1           0       -0.427618   -1.229310   -3.695801
     12          1           0       -2.653934    3.776876    2.324402
     13          6           0       -0.842007   -1.631735   -2.755721
     14          1           0       -1.181920   -2.886589    0.960286
     15          1           0       -0.635092   -2.712397   -2.752443
     16          1           0       -1.574188    2.710335    1.386211
     17          6           0       -1.230787   -3.549767    0.084707
     18          1           0       -0.974291   -4.574574    0.403761
     19          1           0       -3.021543    2.812090   -0.249337
     20         44           0       -2.935060   -0.052551    0.622606
     21          1           0       -2.026962    0.777018   -2.207124
     22          7           0       -3.498818    1.981430    1.575449
     23          6           0       -3.934575    2.705224    0.361428
     24          6           0       -2.340212   -1.328584   -2.711504
     25          1           0       -2.102285    0.400600   -3.958473
     26          1           0       -1.914279   -4.322144   -2.464861
     27          6           0       -2.536411    0.171154   -2.969950
     28          6           0       -2.632044   -3.547133   -0.535221
     29         15           0       -3.011587   -1.724727   -0.960463
     30          1           0       -4.328244    3.708246    0.598317
     31          6           0       -2.681720   -4.525911   -1.707328
     32          1           0       -4.267393    1.162528    3.332437
     33          1           0       -4.467177    3.664879    3.698537
     34          1           0       -2.498818   -5.543599   -1.322257
     35          6           0       -4.620932    1.818993    2.527452
     36          1           0       -2.602174   -1.778736   -4.792104
     37          6           0       -3.826320   -1.035273    1.882545
     38          6           0       -3.066706   -2.073532   -3.835776
     39          1           0       -3.680050   -3.384622    1.395449
     40          6           0       -3.629922   -4.036709    0.516211
     41          1           0       -3.004934   -3.164876   -3.767071
     42          1           0       -3.308841   -5.033841    0.861175
     43          6           0       -4.925282    1.910265   -0.439370
     44          7           0       -4.608247    0.613005   -0.543718
     45          6           0       -5.205378    3.094698    3.115391
     46          1           0       -3.600016    0.448197   -3.014067
     47          1           0       -5.404048    1.254279    2.000429
     48          1           0       -3.666509   -4.536334   -2.198297
     49          1           0       -5.626427    3.763389    2.349443
     50          6           0       -4.874917   -1.671255   -1.245376
     51          1           0       -6.026065    2.825961    3.797307
     52          1           0       -4.127263   -1.787214   -3.899916
     53          6           0       -5.345742   -0.245857   -1.266679
     54          6           0       -6.045787    2.422060   -1.084478
     55          1           0       -4.644386   -4.150387    0.104380
     56          1           0       -6.299980    3.478959   -0.992802
     57          1           0       -5.302524   -2.149064   -0.348357
     58          1           0       -5.227028   -2.229856   -2.123860
     59          6           0       -6.472052    0.210339   -1.951575
     60          6           0       -6.820624    1.555876   -1.856532
     61          1           0       -7.067833   -0.482766   -2.547098
     62          1           0       -7.701647    1.929927   -2.381453
     63          8           0       -4.366850   -1.594298    2.761993
     64          6           0        2.251669   -4.293088    2.277548
     65          1           0        0.395835    1.339423   -1.784861
     66          8           0       -0.366530   -0.905908    2.488398
     67          1           0        0.737811    3.274010   -0.090125
     68          8           0        1.226089   -0.752209   -0.354289
     69          1           0       -0.310085   -0.130108    1.886961
     70          6           0        2.072815   -2.874842    1.754615
     71          1           0        0.506806    1.610814   -3.535870
     72          6           0        0.943194    1.886731   -2.560956
     73          1           0        1.646149    2.936775    1.376939
     74          1           0        0.752938    2.959085   -2.412399
     75          6           0        1.588822    3.615333    0.513888
     76          1           0        1.382446    4.637564    0.874638
[...]
 3,-0.00009890,0.00025075,-0.00022286,0.00010674,-0.00028050,-0.0002142
 0,-0.00000143,-0.00000711,-0.00000697,-0.00010231,0.00005041,0.0000252
 6,0.00005574,0.00029852,-0.00005287,0.00000129,-0.00000445,0.00000325,
 -0.00096365,-0.00040937,-0.00030871,0.00000159,-0.00000027,0.00000438,
 -0.00011678,-0.00003800,0.00010753,0.00000922,-0.00000080,-0.00000393,
 -0.00000270,0.00000062,-0.00000408,0.00000556,-0.00000400,-0.00000796,
 -0.00000062,-0.00000128,0.00000138,-0.00000278,-0.00000303,0.00000347,
 -0.00025397,-0.00152431,-0.00018724,0.00012916,-0.00000870,-0.00010344
 ,-0.00044193,-0.00029523,0.00026687,-0.00000554,-0.00000745,0.00001905
 ,0.00013960,-0.00003892,0.00000899,0.00000046,0.00000034,-0.00000200,-
 0.00024559,0.00003959,0.00043311,0.00004590,-0.00000903,0.00004536,-0.
 00025007,0.00009549,0.00025088,-0.00000190,0.00000082,-0.00000088,-0.0
 0000655,-0.00005536,0.00011222,0.00004063,0.00033743,-0.00057813,0.000
 00078,-0.00000090,0.00000086,-0.00003533,0.00001799,0.00000583,-0.0000
 0614,0.00000649,-0.00001235,-0.00001188,0.00001730,0.00002240,-0.00001
 969,0.00000087,-0.00007596,0.00008147,-0.00005850,0.00006360,-0.000001
 59,0.00000582,0.00000080,0.00000595,0.00002048,-0.00005557,-0.00091859
 ,0.00032125,-0.00032077,0.00006606,-0.00000042,-0.00002788,0.00030063,
 -0.00048880,0.00061906,-0.00008228,-0.00049938,0.00035364,-0.00136181,
 0.00407103,-0.00049212,-0.00044274,-0.00443187,-0.00370991,0.02422667,
 0.14066635,0.19274314,0.00003093,0.00001085,0.00005723,0.00023720,0.00
 004516,0.00006879,-0.00006283,-0.00004761,-0.00011529,0.00007998,-0.00
 013301,0.00009920,-0.00012438,-0.00119191,-0.00050994,-0.02116752,0.03
 124948,0.02312448,0.00014694,0.00001994,0.00002097,-0.04510216,-0.0312
 0520,-0.02210809,0.00033921,-0.00026992,0.00015275,0.00004936,-0.00056
 191,0.00043210,0.00010398,0.00002676,0.00002631,0.00006303,-0.00019532
 ,-0.00041981,-0.00066662,0.00011110,0.00007081,0.00007900,-0.00003645,
 -0.00008038,0.00026040,0.00020638,0.00002586,-0.00046759,0.00113535,0.
 00002435,-0.00009242,0.00006164,-0.00006796,-0.00001337,0.00005860,-0.
 00001540,-0.00009953,-0.00034776,0.00003373,-0.00109485,0.00125906,0.0
 0072590,-0.00053182,0.00033146,-0.00010735,-0.00009228,-0.00024281,-0.
 00019928,-0.00024956,0.00048959,0.00000395,-0.00014026,-0.00007322,0.0
 0004299,0.00011675,0.00007256,0.00004346,0.00001641,-0.00003106,0.0000
 0503,0.00025547,-0.00011942,0.00011454,0.00017864,-0.00005438,0.000030
 14,-0.00013001,-0.00046765,0.00027148,-0.00001256,-0.00002702,0.000175
 69,-0.00007619,0.00007338,-0.00001193,-0.00000712,-0.00000971,0.000024
 08,0.00001396,0.00002466,0.00003096,0.00000971,0.00005949,-0.00002056,
 0.00014100,0.00004238,0.00015005,-0.00000077,-0.00000987,0.00000757,0.
 00010141,-0.00070913,0.00040338,-0.00000679,0.00002410,-0.00003160,0.0
 0001195,-0.00003902,0.00000333,-0.00008480,0.00006322,0.00002328,0.000
 03033,0.00005424,-0.00000333,0.00000152,0.00004515,-0.00002985,0.00019
 519,-0.00013015,-0.00011398,-0.00029080,0.00011980,0.00026725,-0.00002
 956,0.00000592,-0.00004766,0.00015094,0.00006521,-0.00002330,0.0000310
 2,-0.00000576,-0.00007092,-0.00002444,-0.00002028,0.00000593,0.0000161
 9,-0.00001476,0.00001103,0.00005555,0.00013225,-0.00000545,0.00002360,
 -0.00000941,-0.00002592,0.00001317,-0.00000256,-0.00000385,0.00008109,
 0.00007020,-0.00002993,-0.00006922,0.00004142,-0.00005664,-0.00001423,
 -0.00001216,0.00002626,-0.00000252,-0.00000870,0.00000316,0.00001237,-
 0.00002038,-0.00001085,0.00005507,-0.00001918,-0.00001223,-0.00006407,
 0.00001107,-0.00004434,0.00006756,-0.00003429,-0.00000587,0.00000145,0
 .00000961,0.00001448,0.00000642,-0.00000173,0.00000382,-0.00008860,0.0
 0034038,-0.00049318,0.00002980,0.00000962,0.00001664,-0.00039034,0.000
 82170,-0.00223996,-0.00111858,0.00125240,0.00058636,0.00001548,0.00014
 629,-0.00030381,-0.00976386,-0.00489310,-0.00356265,0.00121807,-0.0021
 2937,-0.00252784,0.00002898,0.00001682,-0.00008840,-0.00004488,-0.0000
 1000,0.00022078,-0.00012434,-0.00002405,-0.00073536,0.00002362,-0.0000
 7537,-0.00015296,0.00000803,-0.00006196,0.00029226,0.00018573,0.000055
 98,0.00025132,-0.00005884,0.00007729,-0.00002652,0.00000342,0.00012792
 ,0.00007327,-0.00434197,0.00228187,0.00148591,0.00037624,-0.00014088,0
 .00045424,-0.00002694,-0.00018509,0.00023291,-0.00017677,0.00000112,-0
 .00006280,0.00048226,-0.00008943,-0.00006303,-0.00010600,0.00000391,-0
 .00015144,-0.00005107,0.00003350,-0.00003660,-0.00016601,0.00006896,-0
 .00004816,-0.00025995,-0.00006459,-0.00033551,0.00061892,-0.00099388,0
 .00121769,0.00006757,-0.00004424,-0.00001162,0.00012963,0.00014346,0.0
 0010974,-0.00001006,0.00003278,0.00002857,-0.00002025,-0.00000139,-0.0
 0006900,-0.00004495,0.00008448,-0.00004686,-0.00016438,-0.00000152,-0.
 00003205,-0.00006152,0.00000067,-0.00011739,-0.00129244,-0.00123896,-0
 .00002140,-0.00038686,0.00013194,0.00013606,-0.00001869,-0.00008554,0.
 00000567,-0.00002107,0.00006414,0.00008074,0.00001744,0.00003384,-0.00
 003797,0.00001187,0.00006325,-0.00000563,0.00031338,-0.00056158,-0.000
 12115,-0.00093868,0.00032138,0.00080297,0.00001555,-0.00000158,0.00001
 147,0.00000348,0.00007723,0.00007689,0.00003738,-0.00004275,0.00001721
 ,-0.00001012,-0.00002262,0.00002945,0.00000187,-0.00003317,0.00002600,
 -0.00026412,0.00022022,-0.00018943,0.00002491,0.00000917,-0.00000036,-
 0.00001615,-0.00000360,0.00018022,0.00026625,-0.00016433,-0.00058181,0
 .00006783,0.00017868,0.00027851,-0.00004728,-0.00001152,0.00003207,-0.
 00000880,-0.00003957,0.00000236,-0.00003817,0.00001681,0.00008040,0.00
 006890,-0.00002098,-0.00011125,-0.00001987,0.00041024,0.00027841,0.000
 13750,-0.00033508,-0.00029909,-0.00002596,0.00001338,-0.00004508,-0.00
 000749,-0.00000155,-0.00000481,0.00124759,0.00303695,0.00030164,0.0013
 0681,0.00086258,0.00010546,-0.00001144,-0.00003211,0.00004676,0.000030
 18,-0.00003801,0.00001029,0.00001095,-0.00000933,-0.00001331,-0.000006
 77,0.00018645,-0.00014347,0.00002127,-0.00003031,-0.00006284,0.0811037
 3,0.00001308,0.00001669,-0.00006705,-0.00013522,-0.00013866,0.00004037
 ,0.00007109,0.00013484,0.00018926,-0.00018017,0.00024929,-0.00020387,-
 0.00270040,-0.00045198,-0.00020306,-0.00550221,0.00241914,0.00627730,-
 0.00038269,-0.00040102,-0.00020278,0.00740123,-0.23064637,-0.14444898,
 -0.00065176,0.00060300,-0.00004331,-0.00031201,-0.00000171,-0.00009486
 ,0.00019091,0.00004269,-0.00008517,-0.00003250,0.00027293,0.00033414,0
 .00010078,-0.00002890,-0.00012687,-0.00007839,0.00011222,0.00032284,0.
 00008940,-0.00011629,-0.00000282,0.00012982,-0.00163791,-0.00052518,0.
 00011902,-0.00014442,0.00046279,0.00012830,-0.00012992,-0.00013894,0.0
 0035429,-0.00083479,-0.00023699,0.00237699,0.00121199,-0.00637419,0.00
 131895,0.00045799,0.00075451,0.00003825,0.00077033,0.00009522,0.000015
 87,0.00014581,0.00033617,-0.00058295,-0.00008290,0.00063689,-0.0003091
 5,-0.00015769,-0.00017381,-0.00008925,-0.00003141,-0.00007489,-0.00022
 431,-0.00010260,-0.00021532,-0.00078720,0.00004507,-0.00026840,0.00137
 797,0.00252432,0.00037349,-0.00012149,0.00015923,0.00020741,0.00033350
 ,-0.00025388,0.00017353,-0.00000179,-0.00001655,0.00001225,0.00000951,
 -0.00000373,-0.00004775,-0.00008000,-0.00019922,-0.00001701,-0.0000342
 7,-0.00001326,-0.00046315,-0.00022110,-0.00003046,-0.00010470,-0.00003
 009,0.00039702,-0.00166860,0.00021832,-0.00030966,-0.00062523,-0.00005
 395,0.00019325,-0.00003018,0.00030928,-0.00014989,-0.00001459,-0.00008
 518,-0.00010018,0.00003862,-0.00000985,-0.00015643,0.00006309,0.000441
 27,0.00012425,-0.00008836,-0.00012217,-0.00022527,-0.00002233,-0.00000
 664,0.00002444,0.00016914,0.00005347,-0.00015258,0.00003452,-0.0000127
 6,-0.00000466,0.00005720,0.00009038,0.00006736,-0.00003455,-0.00000241
 ,0.00000361,-0.00003985,-0.00029822,-0.00045073,-0.00016123,-0.0000107
 3,0.00003762,0.00008684,0.00026278,0.00003248,-0.00003872,-0.00008938,
 0.00051883,-0.00009291,-0.00021024,-0.00012514,0.00003657,0.00006336,0
 .00002827,-0.00012791,0.00001247,0.00004233,-0.00000113,0.00012058,0.0
 0001000,-0.00007715,-0.00021180,0.00001781,0.00006879,0.00004712,-0.00
 029209,0.00001357,-0.00006187,0.00021862,-0.00001403,-0.00007121,-0.00
 001496,0.00002370,-0.00003751,0.00000136,0.00000997,0.00059139,-0.0008
 9451,0.00276759,-0.00042585,-0.00015784,0.00001094,0.00113840,0.001817
 79,0.00215288,0.00232730,-0.00419445,-0.00044602,0.00025631,-0.0009992
 7,0.00071662,-0.01425848,0.01483015,0.02024113,-0.00254436,0.00561677,
 -0.00057196,0.00058700,0.00025190,0.00028293,0.00003394,0.00006675,-0.
 00055552,-0.00048947,-0.00086890,0.00036430,-0.00065543,-0.00002561,0.
 00020994,0.00011480,-0.00030085,0.00028009,-0.00046501,-0.00001589,0.0
 0004330,0.00034025,0.00000857,-0.00026516,-0.00016969,-0.00058300,-0.0
 0013780,0.01173196,0.00223597,-0.00406077,-0.00087941,-0.00004377,-0.0
 0212626,-0.00046195,0.00032261,-0.00038772,0.00049647,-0.00001994,-0.0
 0027045,-0.00050312,0.00016803,0.00043300,0.00019659,-0.00014221,0.000
 35511,0.00008049,0.00000590,0.00010092,0.00008432,0.00005332,-0.000023
 40,0.00021047,0.00037537,0.00083310,-0.00070123,0.00280552,-0.00076310
 ,-0.00028675,0.00007013,0.00004636,-0.00013357,-0.00035638,-0.00032244
 ,0.00000552,-0.00009551,-0.00001897,0.00007133,0.00000380,0.00014280,0
 .00003663,-0.00019156,0.00010852,0.00057134,0.00008600,0.00014536,0.00
 008057,0.00000993,0.00016909,0.00216075,0.00150563,0.00086131,0.000531
 69,-0.00033083,-0.00021412,0.00001825,0.00021563,-0.00002488,0.0000110
 3,-0.00025897,-0.00035978,0.00000183,-0.00011434,0.00015473,-0.0000760
 9,-0.00017829,0.00003580,-0.00004040,0.00045386,-0.00014693,-0.0000446
 8,-0.00093498,-0.00057702,-0.00009106,-0.00002771,-0.00000548,-0.00000
 793,-0.00021070,0.00013136,-0.00015522,0.00009873,-0.00007126,0.000018
 83,0.00007576,-0.00014564,0.00001339,0.00008983,-0.00004840,0.00009002
 ,-0.00045732,0.00028636,-0.00005737,-0.00002750,-0.00001003,0.00003177
 ,0.00001593,-0.00024241,-0.00011225,0.00052490,0.00054487,0.00000321,-
 0.00027105,-0.00018004,0.00015875,0.00002903,-0.00011550,0.00001791,0.
 00004512,-0.00003041,0.00003699,0.00003729,-0.00013013,-0.00001471,0.0
 0003161,0.00015182,0.00012263,-0.00058949,-0.00024522,-0.00017672,0.00
 039944,0.00031739,0.00000184,-0.00001205,0.00007721,-0.00000483,-0.000
 00126,0.00002715,0.00198482,-0.00833872,0.00083990,-0.00324504,-0.0018
 9114,-0.00075373,0.00004859,0.00006159,-0.00008257,-0.00015354,0.00022
 585,-0.00007743,-0.00001413,0.00003394,0.00002815,-0.00026976,-0.00094
 015,0.00046944,-0.00011033,0.00021289,0.00025388,0.00039379,0.21721111
 ,0.00002682,0.00002811,-0.00003090,-0.00010353,-0.00003539,0.00003114,
 0.00005841,0.00002929,0.00012630,-0.00001759,-0.00006947,-0.00012817,-
 0.00118876,-0.00025130,0.00056811,-0.00319812,0.00286486,0.00211498,-0
 .00018600,-0.00013523,-0.00007923,0.00714771,-0.14657690,-0.11696451,0
 .00026355,0.00005920,-0.00046174,-0.00028198,0.00015526,-0.00006164,-0
 .00008180,-0.00005804,-0.00015288,0.00003039,0.00028810,0.00027200,0.0
 0008767,0.00009630,-0.00018117,-0.00005882,0.00019916,0.00009197,0.000
 08611,-0.00003518,-0.00003581,0.00018348,-0.00131055,-0.00079456,0.000
 16346,0.00000206,0.00029897,0.00000731,-0.00014478,-0.00003793,0.00034
 071,-0.00072656,-0.00034902,0.00162264,-0.00177928,-0.00423698,0.00058
 611,0.00027165,0.00073885,-0.00010457,0.00073204,0.00028224,-0.0000167
 6,0.00005285,0.00046153,-0.00025426,-0.00001511,0.00040235,-0.00032660
 ,-0.00013731,-0.00017864,-0.00004526,-0.00002347,-0.00005980,-0.000117
 64,-0.00014835,-0.00029428,-0.00051758,-0.00010182,-0.00026896,0.00118
 278,0.00147963,0.00043896,-0.00005001,0.00011320,0.00010495,0.00017982
 ,-0.00015240,0.00015896,0.00000024,-0.00004125,-0.00000998,0.00002017,
 0.00000719,-0.00004048,-0.00004325,-0.00013883,-0.00001452,-0.00007041
 ,0.00001765,-0.00035593,-0.00015704,-0.00003049,-0.00008707,-0.0003784
 8,0.00157709,-0.00125833,0.00012100,-0.00013305,-0.00038663,-0.0000296
 7,0.00012261,-0.00001697,0.00014753,-0.00006107,-0.00003291,-0.0000343
 4,-0.00005385,0.00003351,0.00000320,-0.00009749,0.00002587,0.00022644,
 0.00022997,0.00006510,0.00005873,-0.00015174,-0.00035993,-0.00000970,0
 .00000906,0.00011878,0.00008695,-0.00004165,-0.00001051,0.00001582,-0.
 00000982,0.00004891,0.00002191,0.00003033,-0.00001928,-0.00000782,0.00
 000880,-0.00002644,-0.00019444,-0.00031103,-0.00019238,-0.00000300,0.0
 0002898,0.00006460,0.00015359,0.00001608,-0.00001574,-0.00014212,0.000
 31759,0.00001131,-0.00006421,-0.00008384,0.00006643,0.00001831,0.00001
 898,-0.00006058,0.00000322,0.00004045,0.00000298,0.00007815,-0.0000070
 1,-0.00005909,-0.00017215,0.00001462,0.00006253,0.00005788,-0.00018825
 ,0.00005926,-0.00013131,0.00016071,-0.00001557,-0.00005454,-0.00001832
 ,0.00000786,-0.00003088,0.00000246,0.00000758,0.00043180,-0.00106219,0
 .00185681,-0.00023692,-0.00009172,-0.00012531,-0.00243135,0.00155651,-
 0.00089209,0.00172405,-0.00209477,0.00238182,0.00005702,0.00000627,0.0
 0069991,-0.00528537,0.01043006,-0.00694362,-0.00545731,0.00170932,-0.0
 0752111,0.00014721,0.00039135,0.00034366,0.00019881,-0.00013356,0.0005
 8463,0.00020249,-0.00000551,-0.00136527,-0.00024958,0.00012023,0.00025
 071,0.00012164,-0.00032079,0.00059385,0.00005698,-0.00016087,-0.000446
 43,-0.00003858,-0.00011955,-0.00000390,-0.00005100,-0.00026906,-0.0000
 7216,0.00493353,-0.00032370,-0.00096136,-0.00024037,-0.00036989,-0.000
 86278,-0.00011377,0.00034673,-0.00054646,0.00024823,-0.00005851,-0.000
 11884,0.00017029,-0.00022598,-0.00030194,0.00013235,-0.00006113,0.0001
 6363,0.00000679,0.00009614,0.00002161,-0.00020582,0.00002939,-0.000116
 99,0.00013337,0.00034755,0.00033613,0.00116947,0.00168204,-0.00164286,
 -0.00014174,0.00007674,0.00002873,-0.00001508,-0.00021025,-0.00016002,
 0.00003649,-0.00007994,-0.00003912,0.00005018,-0.00000502,0.00014207,-
 0.00003273,-0.00014632,0.00004786,0.00038548,0.00002205,0.00008559,0.0
 0004960,-0.00000321,0.00003094,0.00199191,0.00141866,0.00035357,-0.000
 07847,0.00010789,0.00002362,0.00000238,0.00012191,0.00000043,0.0000309
 2,-0.00017918,-0.00020016,0.00001653,-0.00008113,0.00005617,-0.0000567
 7,-0.00012494,0.00002607,-0.00010015,0.00035933,0.00004457,0.00017149,
 -0.00061779,-0.00096024,-0.00006350,-0.00002017,-0.00001062,-0.0000045
 7,-0.00000103,0.00017087,-0.00010151,0.00007845,-0.00004772,-0.0000063
 7,0.00004555,-0.00006606,-0.00001812,0.00009710,-0.00005961,-0.0000140
 7,-0.00035724,0.00013364,-0.00002510,-0.00001766,-0.00001844,-0.000039
 39,0.00000094,0.00009214,-0.00006752,-0.00006488,0.00040863,0.00002008
 ,-0.00012462,-0.00020832,0.00007112,0.00002202,-0.00004208,0.00000348,
 0.00003697,-0.00001248,-0.00005419,0.00006532,-0.00000504,-0.00003170,
 0.00005815,0.00010944,0.00004380,-0.00020453,-0.00020085,-0.00011329,0
 .00020619,0.00024890,0.00002017,-0.00002073,0.00002209,-0.00000220,0.0
 0001111,0.00001548,-0.00251101,0.00724120,0.00265568,-0.00212031,-0.00
 120101,-0.00034952,0.00002570,0.00008860,-0.00008029,-0.00007588,0.000
 12851,-0.00003267,-0.00000618,-0.00002555,0.00001964,-0.00021985,-0.00
 045249,0.00027498,-0.00026891,0.00026219,0.00018302,0.00291782,0.12616
 504,0.13262003\\-0.00000035,0.00000074,-0.00000063,0.00000046,0.000000
 01,-0.00000083,0.00000004,-0.00000053,-0.00000025,0.00000229,0.0000003
 4,0.00000035,0.00000487,0.00000597,-0.00002074,0.00000444,-0.00001165,
 0.00001027,-0.00000067,-0.00000083,-0.00000119,-0.00000877,0.00003093,
 0.00000751,0.00000342,0.00000846,0.00000379,0.00000492,0.00000228,-0.0
 0000018,0.00000116,-0.00000119,-0.00000023,0.00000095,0.00000073,-0.00
 000048,0.00000278,-0.00001102,0.00001298,0.00000025,-0.00000001,-0.000
 00081,-0.00000111,-0.00000088,-0.00000004,-0.00000165,0.00000023,-0.00
 000034,0.00000059,0.00000119,0.00000344,0.00000032,-0.00000063,-0.0000
 0098,-0.00000209,0.00000213,-0.00000043,-0.00000946,0.00001652,0.00001
 011,0.00000166,-0.00000257,-0.00001351,0.00000091,-0.00000015,0.000001
 17,-0.00000113,-0.00000311,-0.00000244,-0.00000742,0.00001020,-0.00000
 673,-0.00000707,0.00000027,0.00000441,0.00000027,-0.00000044,0.0000000
 7,-0.00000148,-0.00000147,0.00000896,-0.00000427,-0.00000157,-0.000004
 41,0.00000387,-0.00000067,-0.00000187,0.00000055,-0.00000102,0.0000006
 6,0.00000290,0.00000042,0.00000373,0.00000005,0.00000018,0.00000090,-0
 .00000029,-0.00000066,-0.00000006,-0.00000019,-0.00000005,0.00000040,-
 0.00000012,0.00000046,0.00000126,0.00000091,0.00000005,-0.00000061,-0.
 00000411,-0.00000472,-0.00000213,0.00000052,-0.00000281,0.00000503,-0.
 00000007,-0.00000220,-0.00000019,0.00000189,0.00000059,0.00000291,0.00
 000019,0.00000145,-0.00000148,0.00000087,0.00000051,0.00000051,-0.0000
 0019,0.00000274,0.00000087,0.00000400,-0.00000542,0.00000102,-0.000001
 02,0.00000009,0.00000032,-0.00000028,0.00000114,0.00000061,-0.00000044
 ,-0.00000048,-0.00000071,0.00000055,-0.00000009,0.00000050,0.00000080,
 0.00000091,0.00000026,-0.00000028,0.00000002,0.00000390,-0.00000009,0.
 00000054,-0.00000011,0.00000049,0.00000123,-0.00000043,0.00000044,-0.0
 0000030,-0.00000139,0.00000356,-0.00000048,-0.00000096,0.00000094,-0.0
 0000131,-0.00000039,-0.00000057,0.00000016,-0.00000020,-0.00000083,0.0
 0000140,-0.00000148,0.00000044,0.00000034,-0.00000030,-0.00000036,0.00
 000217,0.,-0.00000186,-0.00000177,0.00000059,0.00000057,-0.00000034,0.
 00000105,0.00000045,0.00000057,0.00000024,0.00000239,0.00000395,0.0000
 0145,0.00000172,-0.00000152,-0.00000112,0.00000727,0.00000593,0.000001
 18,0.00000655,-0.00002815,0.00000903,0.00000047,0.00000235,-0.00000210
 ,-0.00001663,-0.00000527,0.00000675,-0.00000789,0.00000850,-0.00001811
 ,-0.00000784,0.00000919,-0.00001679,0.00000480,-0.00000331,-0.00000074
 ,-0.00000769,-0.00000127,0.00000282,-0.00000244,0.00000195,-0.00000063
 ,-0.00000099,0.00000093,-0.00000300,0.00000476,-0.00000406,0.00000158,
 -0.00000094,0.00000162,-0.00000141,0.00000137,-0.00000265,-0.00000007,
 0.00001502,-0.00001754,-0.00000264,0.00000007,0.00000073,-0.00000087,-
 0.00000690,-0.00000190,0.00000395,0.00000470,0.00001280,0.00000634,0.0
 0000419,0.00000283,0.00000579,-0.00000009,-0.00000048,-0.00000111,0.,-
 0.00000018,0.00000096,-0.00000228,-0.00000083,0.00000006,-0.00000229,0
 .00000207,0.00000092,0.00000027,-0.00000487,-0.00000111,-0.00000078,-0
 .00000368,0.00000132,0.00000123,0.00000127,-0.00000092,-0.00000006,0.0
 0000025,-0.00000109,0.00000138,-0.00000251,0.00000133,0.00000027,-0.00
 000023,0.00000006,0.00000054,0.00000086,0.,-0.00000052,-0.00000058,-0.
 00000054,-0.00000761,0.00000889,-0.00000156,-0.00000155,0.00000211,0.0
 0000201,-0.00000114,0.00000032,-0.00000073,-0.00000145,-0.00000130,0.0
 0000094,-0.00000053,-0.00000250,-0.00000041,0.00000024,0.00000025,-0.0
 0000096,-0.00000872,0.00001016,-0.00000124,0.00000307,-0.00001610,-0.0
 0000855,0.00000038,0.00000063,0.00000032,0.00000078,-0.00000035,-0.000
 00048,-0.00000055,-0.00000019,0.00000059,-0.00000056,0.00000079,-0.000
 00013,0.00000018,-0.00000003,-0.00000039,-0.00000027,0.00000029,0.0000
 0189,0.00000025,0.00000015,-0.00000037,0.00000145,-0.00000132,-0.00000
 178,-0.00000432,0.00000450,0.00000748,0.00000017,-0.00000371,-0.000002
 18,0.,0.00000006,-0.00000072,0.00000007,0.00000013,-0.00000080,-0.0000
 0110,0.00000154,-0.00000037,-0.00000090,-0.00000006,-0.00000221,0.0000
 0036,0.00000138,-0.00000317,-0.00000113,0.00000027,0.00000257,-0.00000
 053,-0.00000072,-0.00000021,-0.00000006,-0.00000038,-0.00000019,0.0000
 0806,0.00000330,-0.00000742,0.00000391,-0.00000256,0.00000051,-0.00000
 090,0.00000034,-0.00000010,0.00000022,-0.00000004,0.00000006,0.0000006
 3,-0.00000072,-0.00000136,0.00001227,-0.00000173,0.00001119,0.00000113
 ,0.00000159,0.00000133,0.00000137,-0.00001783,-0.00000613\\\@


 IF YOU DON'T HAVE THE LAW - ARGUE THE FACTS.
 IF YOU DON'T HAVE THE FACTS - ARGUE THE LAW.
 IF YOU DON'T HAVE EITHER - POUND THE TABLE.
 Job cpu time:      23 days  4 hours 57 minutes 45.3 seconds.
 Elapsed time:       1 days  4 hours  2 minutes 35.5 seconds.
 File lengths (MBytes):  RWF=  33952 Int=      0 D2E=      0 Chk=    152 Scr=      1
 Normal termination of Gaussian 16 at Tue Jul 14 00:56:52 2020.
