 Entering Gaussian System, Link 0=g16
 Initial command:
 /cluster/chemistry/gaussian/g16/l1.exe "/scratch/js1212.15143/scratch/Gau-10130.inp" -scrdir="/scratch/js1212.15143/scratch/"
 Entering Link 1 = /cluster/chemistry/gaussian/g16/l1.exe PID=     10131.
  
 Copyright (c) 1988,1990,1992,1993,1995,1998,2003,2009,2016,
            Gaussian, Inc.  All Rights Reserved.
  
 This is part of the Gaussian(R) 16 program.  It is based on
 the Gaussian(R) 09 system (copyright 2009, Gaussian, Inc.),
 the Gaussian(R) 03 system (copyright 2003, Gaussian, Inc.),
 the Gaussian(R) 98 system (copyright 1998, Gaussian, Inc.),
 the Gaussian(R) 94 system (copyright 1995, Gaussian, Inc.),
 the Gaussian 92(TM) system (copyright 1992, Gaussian, Inc.),
 the Gaussian 90(TM) system (copyright 1990, Gaussian, Inc.),
 the Gaussian 88(TM) system (copyright 1988, Gaussian, Inc.),
 the Gaussian 86(TM) system (copyright 1986, Carnegie Mellon
 University), and the Gaussian 82(TM) system (copyright 1983,
 Carnegie Mellon University). Gaussian is a federally registered
 trademark of Gaussian, Inc.
  
 This software contains proprietary and confidential information,
 including trade secrets, belonging to Gaussian, Inc.
  
 This software is provided under written license and may be
 used, copied, transmitted, or stored only in accord with that
 written license.
  
 The following legend is applicable only to US Government
 contracts under FAR:
  
                    RESTRICTED RIGHTS LEGEND
  
 Use, reproduction and disclosure by the US Government is
 subject to restrictions as set forth in subparagraphs (a)
 and (c) of the Commercial Computer Software - Restricted
 Rights clause in FAR 52.227-19.
  
 Gaussian, Inc.
 340 Quinnipiac St., Bldg. 40, Wallingford CT 06492
  
  
 ---------------------------------------------------------------
 Warning -- This program may not be used in any manner that
 competes with the business of Gaussian, Inc. or will provide
 assistance to any competitor of Gaussian, Inc.  The licensee
 of this program is prohibited from giving any competitor of
 Gaussian, Inc. access to this program.  By using this program,
 the user acknowledges that Gaussian, Inc. is engaged in the
 business of creating and licensing software in the field of
 computational chemistry and represents and warrants to the
 licensee that it is not a competitor of Gaussian, Inc. and that
 it will not use this program in any manner prohibited above.
 ---------------------------------------------------------------
  

 Cite this work as:
 Gaussian 16, Revision A.03,
 M. J. Frisch, G. W. Trucks, H. B. Schlegel, G. E. Scuseria, 
 M. A. Robb, J. R. Cheeseman, G. Scalmani, V. Barone, 
 G. A. Petersson, H. Nakatsuji, X. Li, M. Caricato, A. V. Marenich, 
 J. Bloino, B. G. Janesko, R. Gomperts, B. Mennucci, H. P. Hratchian, 
 J. V. Ortiz, A. F. Izmaylov, J. L. Sonnenberg, D. Williams-Young, 
 F. Ding, F. Lipparini, F. Egidi, J. Goings, B. Peng, A. Petrone, 
 T. Henderson, D. Ranasinghe, V. G. Zakrzewski, J. Gao, N. Rega, 
 G. Zheng, W. Liang, M. Hada, M. Ehara, K. Toyota, R. Fukuda, 
 J. Hasegawa, M. Ishida, T. Nakajima, Y. Honda, O. Kitao, H. Nakai, 
 T. Vreven, K. Throssell, J. A. Montgomery, Jr., J. E. Peralta, 
 F. Ogliaro, M. J. Bearpark, J. J. Heyd, E. N. Brothers, K. N. Kudin, 
 V. N. Staroverov, T. A. Keith, R. Kobayashi, J. Normand, 
 K. Raghavachari, A. P. Rendell, J. C. Burant, S. S. Iyengar, 
 J. Tomasi, M. Cossi, J. M. Millam, M. Klene, C. Adamo, R. Cammi, 
 J. W. Ochterski, R. L. Martin, K. Morokuma, O. Farkas, 
 J. B. Foresman, and D. J. Fox, Gaussian, Inc., Wallingford CT, 2016.
 
 ******************************************
 Gaussian 16:  ES64L-G16RevA.03 25-Dec-2016
                11-Nov-2018 
 ******************************************
 %rwf=/scratch/js1212.15143/2-Full-Cis-B-GPNMR-NoSpin.rwf
 %nosave
 %nprocshared=16
 Will use up to   16 processors via shared memory.
 %mem=3000MB
 %chk=/scratch/js1212.15143/2-Full-Cis-B-GPOF-Titan.chk
 ----------------------------------------------------------------------
 # nmr genecp pbe1pbe EmpiricalDispersion=GD3BJ scrf=(SMD,solvent=water
 ) geom=allcheck
 ----------------------------------------------------------------------
 1/29=7,38=1,172=1/1;
 2/12=2,40=1/2;
 3/5=7,11=2,14=-4,16=1,17=8,25=1,30=1,70=32201,72=1,74=-13,124=41/1,2,3,8;
 4//1;
 5/5=2,38=5,53=1/2;
 8/6=1,10=90,11=11/1;
 10/13=100,45=16/2;
 6/7=2,8=2,9=2,10=2,28=1/1;
 99/9=1/99;
 Structure from the checkpoint file:  "/scratch/js1212.15143/2-Full-Cis-B-GPOF-Titan.chk"
 -------------------
 Title Card Required
 -------------------
 Charge =  0 Multiplicity = 1
 Redundant internal coordinates found in file.  (old form).
 N,0,-0.065572841,1.4849572174,0.1343677737
 C,0,-1.0984302408,2.3188566129,0.3726571948
 C,0,1.0768888343,1.951937701,-0.4193432727
 C,0,-1.0018246506,3.6829137345,0.1307993599
 C,0,0.1961290308,4.1929427159,-0.3646016276
 C,0,1.238221835,3.3162297806,-0.6514075275
 C,0,-2.313078669,1.6383103434,0.9255716045
 H,0,-1.8550750949,4.3321400005,0.3309461541
 H,0,0.3082884678,5.2625562291,-0.5491587783
 H,0,2.1744162543,3.679901247,-1.0767996461
 C,0,2.0888875001,0.9245918772,-0.827518324
 N,0,-2.5125021942,0.30865535,0.3135407618
 H,0,-3.2020489476,2.2847871353,0.8184270188
 H,0,-2.1560934455,1.47136838,2.0043257983
 H,0,1.8754461795,0.66167245,-1.8782097843
 P,0,1.8315187175,-0.6859497155,0.0988461326
 H,0,3.1132171984,1.3236084718,-0.7879423607
 Ru,0,-0.3837650689,-0.5109104112,0.448400943
 C,0,-2.9059953317,0.4362387157,-1.1120076316
 C,0,2.4870203704,-2.0094370818,-1.0990287709
 C,0,-3.5230026873,-0.4285972162,1.1071790666
 C,0,3.0097418245,-0.4907209948,1.587434426
 C,0,1.3828376237,-2.2910167346,-2.1229672368
 C,0,2.7199383801,-3.3000829304,-0.310444409
 C,0,3.75854617,-1.5952307835,-1.8422629127
 C,0,2.6644311963,0.8561210664,2.2338213669
 C,0,4.4931123519,-0.4828286883,1.220997671
 C,0,2.7432384414,-1.5987434288,2.6092663008
 H,0,-0.3439850708,-0.5741605607,-1.2001973604
 H,0,-2.1107306365,1.0139891505,-1.603484825
 C,0,-4.2647492495,1.0638413012,-1.3870934596
 H,0,-2.8479447834,-0.5719257495,-1.5399052849
 H,0,-3.1031732909,-0.5275965911,2.119121113
 C,0,-3.835918806,-1.8006060184,0.5488057136
 H,0,-4.4388848513,0.1891107434,1.2011490019
 C,0,-0.4769286788,-0.5896010501,2.3406767652
 O,0,-0.8399088249,-2.5396555864,0.2521255725
 H,0,-0.6980571573,-2.975435498,1.1004807935
 H,0,-2.8884829179,-2.3351560306,0.3475591543
 H,0,-4.4337873194,-1.7490719815,-0.3740645441
 H,0,-4.4252163263,-2.362799518,1.288909265
 H,0,-4.4142957585,1.1157594746,-2.4760245556
 H,0,-4.3488825271,2.0917650351,-1.0018409618
 H,0,-5.094544801,0.4739054717,-0.9708422204
 H,0,1.7386293932,-3.0913885288,-2.7949340992
 H,0,1.1549053399,-1.4097206044,-2.7408786529
 H,0,0.4590008475,-2.6085201331,-1.6154384416
 H,0,2.9196922428,-4.1194626358,-1.0207694134
 H,0,1.821860719,-3.5687590734,0.2658398094
 H,0,3.5838874386,-3.2352164643,0.3658385186
 H,0,4.0390735367,-2.4056765064,-2.5359702107
 H,0,4.6153758232,-1.4186319549,-1.1809724084
 H,0,3.6032819363,-0.6930721387,-2.4533785936
 H,0,4.843133011,-1.465932999,0.8779618968
 H,0,5.0820016858,-0.2215503391,2.1166021151
 H,0,4.7332730806,0.2609942377,0.4457712496
 H,0,3.0138669842,-2.5925125223,2.2319675715
 H,0,1.6903810776,-1.6253633113,2.9146172165
 H,0,3.3488111092,-1.4073075785,3.5111677234
 H,0,3.2133680943,0.9473905886,3.1854734642
 H,0,1.5910692005,0.9414232459,2.4535241568
 H,0,2.9586075605,1.7083608036,1.6029583567
 O,0,-0.5796292861,-0.6959477214,3.4944362833
 Recover connectivity data from disk.
                           ----------------------------
                           !    Current Parameters    !
                           ! (Angstroms and Degrees)  !
 --------------------------                            --------------------------
 ! Name  Definition              Value                                          !
 --------------------------------------------------------------------------------
 ! R1    R(1,2)                  1.3487                                         !
 ! R2    R(1,3)                  1.3527                                         !
 ! R3    R(1,18)                 2.0453                                         !
 ! R4    R(2,4)                  1.3887                                         !
 ! R5    R(2,7)                  1.4981                                         !
 ! R6    R(3,6)                  1.3933                                         !
 ! R7    R(3,11)                 1.4987                                         !
 ! R8    R(4,5)                  1.3931                                         !
 ! R9    R(4,8)                  1.0907                                         !
 ! R10   R(5,6)                  1.3917                                         !
 ! R11   R(5,9)                  1.0912                                         !
 ! R12   R(6,10)                 1.0907                                         !
 ! R13   R(7,12)                 1.4773                                         !
 ! R14   R(7,13)                 1.1044                                         !
 ! R15   R(7,14)                 1.1028                                         !
 ! R16   R(11,15)                1.1039                                         !
 ! R17   R(11,16)                1.8757                                         !
 ! R18   R(11,17)                1.1                                            !
 ! R19   R(12,19)                1.4844                                         !
 ! R20   R(12,21)                1.4814                                         !
 ! R21   R(16,18)                2.2495                                         !
 ! R22   R(16,20)                1.9016                                         !
 ! R23   R(16,22)                1.9085                                         !
 ! R24   R(18,29)                1.6503                                         !
 ! R25   R(18,36)                1.8962                                         !
 ! R26   R(18,37)                2.0886                                         !
 ! R27   R(19,30)                1.099                                          !
 ! R28   R(19,31)                1.5218                                         !
 ! R29   R(19,32)                1.0968                                         !
 ! R30   R(20,23)                1.532                                          !
 ! R31   R(20,24)                1.5303                                         !
 ! R32   R(20,25)                1.5299                                         !
 ! R33   R(21,33)                1.1                                            !
 ! R34   R(21,34)                1.514                                          !
 ! R35   R(21,35)                1.1087                                         !
 ! R36   R(22,26)                1.5333                                         !
 ! R37   R(22,27)                1.528                                          !
 ! R38   R(22,28)                1.5306                                         !
 ! R39   R(23,45)                1.104                                          !
 ! R40   R(23,46)                1.1002                                         !
 ! R41   R(23,47)                1.1008                                         !
 ! R42   R(24,48)                1.1027                                         !
 ! R43   R(24,49)                1.1004                                         !
 ! R44   R(24,50)                1.0991                                         !
 ! R45   R(25,51)                1.1031                                         !
 ! R46   R(25,52)                1.0967                                         !
 ! R47   R(25,53)                1.1007                                         !
 ! R48   R(26,60)                1.1024                                         !
 ! R49   R(26,61)                1.0989                                         !
 ! R50   R(26,62)                1.1004                                         !
 ! R51   R(27,54)                1.0985                                         !
 ! R52   R(27,55)                1.1033                                         !
 ! R53   R(27,56)                1.1009                                         !
 ! R54   R(28,57)                1.0969                                         !
 ! R55   R(28,58)                1.0966                                         !
 ! R56   R(28,59)                1.1031                                         !
 ! R57   R(31,42)                1.1004                                         !
 ! R58   R(31,43)                1.101                                          !
 ! R59   R(31,44)                1.0999                                         !
 ! R60   R(34,39)                1.1063                                         !
 ! R61   R(34,40)                1.1008                                         !
 ! R62   R(34,41)                1.1005                                         !
 ! R63   R(36,63)                1.1632                                         !
 ! R64   R(37,38)                0.9642                                         !
 ! A1    A(2,1,3)              120.375                                          !
 ! A2    A(2,1,18)             117.1992                                         !
 ! A3    A(3,1,18)             122.0799                                         !
 ! A4    A(1,2,4)              121.553                                          !
 ! A5    A(1,2,7)              113.9075                                         !
 ! A6    A(4,2,7)              124.5347                                         !
 ! A7    A(1,3,6)              120.2656                                         !
 ! A8    A(1,3,11)             116.4311                                         !
 ! A9    A(6,3,11)             123.2076                                         !
 ! A10   A(2,4,5)              118.7755                                         !
 ! A11   A(2,4,8)              119.8879                                         !
 ! A12   A(5,4,8)              121.3365                                         !
 ! A13   A(4,5,6)              119.1147                                         !
 ! A14   A(4,5,9)              120.4916                                         !
 ! A15   A(6,5,9)              120.3762                                         !
 ! A16   A(3,6,5)              119.7243                                         !
 ! A17   A(3,6,10)             119.3959                                         !
 ! A18   A(5,6,10)             120.8663                                         !
 ! A19   A(2,7,12)             111.4341                                         !
 ! A20   A(2,7,13)             110.5437                                         !
 ! A21   A(2,7,14)             108.3233                                         !
 ! A22   A(12,7,13)            112.2111                                         !
 ! A23   A(12,7,14)            106.7515                                         !
 ! A24   A(13,7,14)            107.3431                                         !
 ! A25   A(3,11,15)            106.9729                                         !
 ! A26   A(3,11,16)            111.1874                                         !
 ! A27   A(3,11,17)            111.7361                                         !
 ! A28   A(15,11,16)           103.8295                                         !
 ! A29   A(15,11,17)           107.4985                                         !
 ! A30   A(16,11,17)           114.927                                          !
 ! A31   A(7,12,19)            110.8736                                         !
 ! A32   A(7,12,21)            108.5465                                         !
 ! A33   A(19,12,21)           112.1148                                         !
 ! A34   A(11,16,18)            98.3406                                         !
 ! A35   A(11,16,20)           103.8386                                         !
 ! A36   A(11,16,22)           102.2792                                         !
 ! A37   A(18,16,20)           119.4391                                         !
 ! A38   A(18,16,22)           118.6077                                         !
 ! A39   A(20,16,22)           110.4702                                         !
 ! A40   A(1,18,16)             84.1957                                         !
 ! A41   A(1,18,29)             83.1235                                         !
 ! A42   A(1,18,36)            101.6164                                         !
 ! A43   A(16,18,29)            79.5165                                         !
 ! A44   A(16,18,36)           101.5501                                         !
 ! A45   A(16,18,37)            97.1742                                         !
 ! A46   A(29,18,37)            82.7707                                         !
 ! A47   A(36,18,37)            92.4495                                         !
 ! A48   A(12,19,30)           106.4301                                         !
 ! A49   A(12,19,31)           116.4714                                         !
 ! A50   A(12,19,32)           106.3589                                         !
 ! A51   A(30,19,31)           110.3933                                         !
 ! A52   A(30,19,32)           105.692                                          !
 ! A53   A(31,19,32)           110.8449                                         !
 ! A54   A(16,20,23)           107.4874                                         !
 ! A55   A(16,20,24)           108.3509                                         !
 ! A56   A(16,20,25)           113.8327                                         !
 ! A57   A(23,20,24)           107.4038                                         !
 ! A58   A(23,20,25)           108.9101                                         !
 ! A59   A(24,20,25)           110.62                                           !
 ! A60   A(12,21,33)           106.0985                                         !
 ! A61   A(12,21,34)           113.2291                                         !
 ! A62   A(12,21,35)           109.3675                                         !
 ! A63   A(33,21,34)           109.67                                           !
 ! A64   A(33,21,35)           106.7051                                         !
 ! A65   A(34,21,35)           111.4335                                         !
 ! A66   A(16,22,26)           106.2386                                         !
 ! A67   A(16,22,27)           114.3819                                         !
 ! A68   A(16,22,28)           109.8262                                         !
 ! A69   A(26,22,27)           108.3724                                         !
 ! A70   A(26,22,28)           108.3741                                         !
 ! A71   A(27,22,28)           109.4428                                         !
 ! A72   A(20,23,45)           107.9267                                         !
 ! A73   A(20,23,46)           112.1773                                         !
 ! A74   A(20,23,47)           110.4707                                         !
 ! A75   A(45,23,46)           107.7977                                         !
 ! A76   A(45,23,47)           109.9981                                         !
 ! A77   A(46,23,47)           108.4274                                         !
 ! A78   A(20,24,48)           108.8039                                         !
 ! A79   A(20,24,49)           110.5839                                         !
 ! A80   A(20,24,50)           112.7644                                         !
 ! A81   A(48,24,49)           107.6852                                         !
 ! A82   A(48,24,50)           107.3279                                         !
 ! A83   A(49,24,50)           109.4941                                         !
 ! A84   A(20,25,51)           108.5394                                         !
 ! A85   A(20,25,52)           113.5784                                         !
 ! A86   A(20,25,53)           111.9867                                         !
 ! A87   A(51,25,52)           107.388                                          !
 ! A88   A(51,25,53)           106.793                                          !
 ! A89   A(52,25,53)           108.2418                                         !
 ! A90   A(22,26,60)           108.9351                                         !
 ! A91   A(22,26,61)           111.8655                                         !
 ! A92   A(22,26,62)           112.2354                                         !
 ! A93   A(60,26,61)           107.8994                                         !
 ! A94   A(60,26,62)           107.3177                                         !
 ! A95   A(61,26,62)           108.3983                                         !
 ! A96   A(22,27,54)           112.309                                          !
 ! A97   A(22,27,55)           108.9495                                         !
 ! A98   A(22,27,56)           112.5911                                         !
 ! A99   A(54,27,55)           107.1798                                         !
 ! A100  A(54,27,56)           108.3775                                         !
 ! A101  A(55,27,56)           107.1691                                         !
 ! A102  A(22,28,57)           112.5352                                         !
 ! A103  A(22,28,58)           111.7551                                         !
 ! A104  A(22,28,59)           108.9422                                         !
 ! A105  A(57,28,58)           108.1001                                         !
 ! A106  A(57,28,59)           107.6391                                         !
 ! A107  A(58,28,59)           107.6762                                         !
 ! A108  A(19,31,42)           108.6443                                         !
 ! A109  A(19,31,43)           112.9566                                         !
 ! A110  A(19,31,44)           112.5811                                         !
 ! A111  A(42,31,43)           106.9684                                         !
 ! A112  A(42,31,44)           107.294                                          !
 ! A113  A(43,31,44)           108.1004                                         !
 ! A114  A(21,34,39)           109.1455                                         !
 ! A115  A(21,34,40)           112.2733                                         !
 ! A116  A(21,34,41)           109.0017                                         !
 ! A117  A(39,34,40)           109.5873                                         !
 ! A118  A(39,34,41)           109.5173                                         !
 ! A119  A(40,34,41)           107.2712                                         !
 ! A120  A(18,37,38)           108.9159                                         !
 ! A121  L(1,18,37,16,-1)      181.3699                                         !
 ! A122  L(29,18,36,1,-1)      184.7399                                         !
 ! A123  L(18,36,63,4,-1)      182.4628                                         !
 ! A124  L(1,18,37,16,-2)      194.7043                                         !
 ! A125  L(29,18,36,1,-2)      179.2656                                         !
 ! A126  L(18,36,63,4,-2)      176.8726                                         !
 ! D1    D(3,1,2,4)             -3.6029                                         !
 ! D2    D(3,1,2,7)            177.168                                          !
 ! D3    D(18,1,2,4)          -176.9892                                         !
 ! D4    D(18,1,2,7)             3.7817                                         !
 ! D5    D(2,1,3,6)              5.0967                                         !
 ! D6    D(2,1,3,11)          -171.4594                                         !
 ! D7    D(18,1,3,6)           178.1527                                         !
 ! D8    D(18,1,3,11)            1.5966                                         !
 ! D9    D(2,1,18,16)         -171.8664                                         !
 ! D10   D(2,1,18,29)          108.0352                                         !
 ! D11   D(2,1,18,36)          -71.2304                                         !
 ! D12   D(3,1,18,16)           14.8683                                         !
 ! D13   D(3,1,18,29)          -65.2302                                         !
 ! D14   D(3,1,18,36)          115.5042                                         !
 ! D15   D(2,1,37,38)          -92.5114                                         !
 ! D16   D(3,1,37,38)          102.4866                                         !
 ! D17   D(1,2,4,5)             -0.2585                                         !
 ! D18   D(1,2,4,8)            179.8448                                         !
 ! D19   D(7,2,4,5)            178.8861                                         !
 ! D20   D(7,2,4,8)             -1.0107                                         !
 ! D21   D(1,2,7,12)           -37.5765                                         !
 ! D22   D(1,2,7,13)          -163.0839                                         !
 ! D23   D(1,2,7,14)            79.5647                                         !
 ! D24   D(4,2,7,12)           143.2209                                         !
 ! D25   D(4,2,7,13)            17.7135                                         !
 ! D26   D(4,2,7,14)           -99.6379                                         !
 ! D27   D(1,3,6,5)             -2.7604                                         !
 ! D28   D(1,3,6,10)           178.5661                                         !
 ! D29   D(11,3,6,5)           173.5534                                         !
 ! D30   D(11,3,6,10)           -5.1201                                         !
 ! D31   D(1,3,11,15)           90.9459                                         !
 ! D32   D(1,3,11,16)          -21.7814                                         !
 ! D33   D(1,3,11,17)         -151.6593                                         !
 ! D34   D(6,3,11,15)          -85.499                                          !
 ! D35   D(6,3,11,16)          161.7738                                         !
 ! D36   D(6,3,11,17)           31.8959                                         !
 ! D37   D(2,4,5,6)              2.528                                          !
 ! D38   D(2,4,5,9)           -178.9872                                         !
 ! D39   D(8,4,5,6)           -177.5769                                         !
 ! D40   D(8,4,5,9)              0.908                                          !
 ! D41   D(4,5,6,3)             -1.0575                                         !
 ! D42   D(4,5,6,10)           177.5961                                         !
 ! D43   D(9,5,6,3)           -179.5441                                         !
 ! D44   D(9,5,6,10)            -0.8906                                         !
 ! D45   D(2,7,12,19)          -69.2056                                         !
 ! D46   D(2,7,12,21)          167.2272                                         !
 ! D47   D(13,7,12,19)          55.3712                                         !
 ! D48   D(13,7,12,21)         -68.196                                          !
 ! D49   D(14,7,12,19)         172.7037                                         !
 ! D50   D(14,7,12,21)          49.1366                                         !
 ! D51   D(3,11,16,18)          28.1988                                         !
 ! D52   D(3,11,16,20)         151.4094                                         !
 ! D53   D(3,11,16,22)         -93.6156                                         !
 ! D54   D(15,11,16,18)        -86.5002                                         !
 ! D55   D(15,11,16,20)         36.7104                                         !
 ! D56   D(15,11,16,22)        151.6855                                         !
 ! D57   D(17,11,16,18)        156.3785                                         !
 ! D58   D(17,11,16,20)        -80.4109                                         !
 ! D59   D(17,11,16,22)         34.5641                                         !
 ! D60   D(7,12,19,30)          57.1331                                         !
 ! D61   D(7,12,19,31)         -66.4186                                         !
 ! D62   D(7,12,19,32)         169.494                                          !
 ! D63   D(21,12,19,30)        178.627                                          !
 ! D64   D(21,12,19,31)         55.0753                                         !
 ! D65   D(21,12,19,32)        -69.0122                                         !
 ! D66   D(7,12,21,33)         -61.1274                                         !
 ! D67   D(7,12,21,34)         178.5335                                         !
 ! D68   D(7,12,21,35)          53.6171                                         !
 ! D69   D(19,12,21,33)        176.0525                                         !
 ! D70   D(19,12,21,34)         55.7134                                         !
 ! D71   D(19,12,21,35)        -69.203                                          !
 ! D72   D(11,16,18,1)         -20.7699                                         !
 ! D73   D(11,16,18,29)         63.2848                                         !
 ! D74   D(11,16,18,36)       -121.478                                          !
 ! D75   D(11,16,18,37)        144.5258                                         !
 ! D76   D(20,16,18,1)        -131.8903                                         !
 ! D77   D(20,16,18,29)        -47.8356                                         !
 ! D78   D(20,16,18,36)        127.4017                                         !
 ! D79   D(20,16,18,37)         33.4054                                         !
 ! D80   D(22,16,18,1)          88.1835                                         !
 ! D81   D(22,16,18,29)        172.2381                                         !
 ! D82   D(22,16,18,36)        -12.5246                                         !
 ! D83   D(22,16,18,37)       -106.5208                                         !
 ! D84   D(11,16,20,23)        -80.976                                          !
 ! D85   D(11,16,20,24)        163.2447                                         !
 ! D86   D(11,16,20,25)         39.7301                                         !
 ! D87   D(18,16,20,23)         27.1175                                         !
 ! D88   D(18,16,20,24)        -88.6618                                         !
 ! D89   D(18,16,20,25)        147.8236                                         !
 ! D90   D(22,16,20,23)        170.0128                                         !
 ! D91   D(22,16,20,24)         54.2334                                         !
 ! D92   D(22,16,20,25)        -69.2812                                         !
 ! D93   D(11,16,22,26)         52.2314                                         !
 ! D94   D(11,16,22,27)        -67.27                                           !
 ! D95   D(11,16,22,28)        169.2329                                         !
 ! D96   D(18,16,22,26)        -54.4952                                         !
 ! D97   D(18,16,22,27)       -173.9965                                         !
 ! D98   D(18,16,22,28)         62.5063                                         !
 ! D99   D(20,16,22,26)        162.2628                                         !
 ! D100  D(20,16,22,27)         42.7615                                         !
 ! D101  D(20,16,22,28)        -80.7357                                         !
 ! D102  D(16,18,37,38)         84.877                                          !
 ! D103  D(29,18,37,38)        163.2918                                         !
 ! D104  D(36,18,37,38)        -17.0915                                         !
 ! D105  D(12,19,31,42)        178.7349                                         !
 ! D106  D(12,19,31,43)         60.2181                                         !
 ! D107  D(12,19,31,44)        -62.5729                                         !
 ! D108  D(30,19,31,42)         57.2533                                         !
 ! D109  D(30,19,31,43)        -61.2635                                         !
 ! D110  D(30,19,31,44)        175.9455                                         !
 ! D111  D(32,19,31,42)        -59.5105                                         !
 ! D112  D(32,19,31,43)       -178.0274                                         !
 ! D113  D(32,19,31,44)         59.1817                                         !
 ! D114  D(16,20,23,45)       -177.493                                          !
 ! D115  D(16,20,23,46)         63.9007                                         !
 ! D116  D(16,20,23,47)        -57.1994                                         !
 ! D117  D(24,20,23,45)        -61.0899                                         !
 ! D118  D(24,20,23,46)       -179.6962                                         !
 ! D119  D(24,20,23,47)         59.2038                                         !
 ! D120  D(25,20,23,45)         58.7449                                         !
 ! D121  D(25,20,23,46)        -59.8615                                         !
 ! D122  D(25,20,23,47)        179.0385                                         !
 ! D123  D(16,20,24,48)        169.673                                          !
 ! D124  D(16,20,24,49)         51.5947                                         !
 ! D125  D(16,20,24,50)        -71.3736                                         !
 ! D126  D(23,20,24,48)         53.8394                                         !
 ! D127  D(23,20,24,49)        -64.2389                                         !
 ! D128  D(23,20,24,50)        172.7928                                         !
 ! D129  D(25,20,24,48)        -64.8998                                         !
 ! D130  D(25,20,24,49)        177.0219                                         !
 ! D131  D(25,20,24,50)         54.0535                                         !
 ! D132  D(16,20,25,51)       -177.9193                                         !
 ! D133  D(16,20,25,52)         62.722                                          !
 ! D134  D(16,20,25,53)        -60.2717                                         !
 ! D135  D(23,20,25,51)        -58.0135                                         !
 ! D136  D(23,20,25,52)       -177.3721                                         !
 ! D137  D(23,20,25,53)         59.6342                                         !
 ! D138  D(24,20,25,51)         59.8075                                         !
 ! D139  D(24,20,25,52)        -59.5511                                         !
 ! D140  D(24,20,25,53)        177.4552                                         !
 ! D141  D(12,21,34,39)         48.9134                                         !
 ! D142  D(12,21,34,40)        -72.8006                                         !
 ! D143  D(12,21,34,41)        168.4899                                         !
 ! D144  D(33,21,34,39)        -69.3725                                         !
 ! D145  D(33,21,34,40)        168.9135                                         !
 ! D146  D(33,21,34,41)         50.204                                          !
 ! D147  D(35,21,34,39)        172.7057                                         !
 ! D148  D(35,21,34,40)         50.9917                                         !
 ! D149  D(35,21,34,41)        -67.7178                                         !
 ! D150  D(16,22,26,60)        171.6271                                         !
 ! D151  D(16,22,26,61)         52.4318                                         !
 ! D152  D(16,22,26,62)        -69.6726                                         !
 ! D153  D(27,22,26,60)        -65.0199                                         !
 ! D154  D(27,22,26,61)        175.7848                                         !
 ! D155  D(27,22,26,62)         53.6804                                         !
 ! D156  D(28,22,26,60)         53.659                                          !
 ! D157  D(28,22,26,61)        -65.5363                                         !
 ! D158  D(28,22,26,62)        172.3593                                         !
 ! D159  D(16,22,27,54)        -69.4987                                         !
 ! D160  D(16,22,27,55)        171.9176                                         !
 ! D161  D(16,22,27,56)         53.1732                                         !
 ! D162  D(26,22,27,54)        172.2044                                         !
 ! D163  D(26,22,27,55)         53.6208                                         !
 ! D164  D(26,22,27,56)        -65.1236                                         !
 ! D165  D(28,22,27,54)         54.2043                                         !
 ! D166  D(28,22,27,55)        -64.3794                                         !
 ! D167  D(28,22,27,56)        176.8763                                         !
 ! D168  D(16,22,28,57)         67.0618                                         !
 ! D169  D(16,22,28,58)        -54.791                                          !
 ! D170  D(16,22,28,59)       -173.6463                                         !
 ! D171  D(26,22,28,57)       -177.2813                                         !
 ! D172  D(26,22,28,58)         60.8658                                         !
 ! D173  D(26,22,28,59)        -57.9894                                         !
 ! D174  D(27,22,28,57)        -59.2822                                         !
 ! D175  D(27,22,28,58)        178.8649                                         !
 ! D176  D(27,22,28,59)         60.0097                                         !
 --------------------------------------------------------------------------------
 Stoichiometry    C20H37N2O2PRu
 Framework group  C1[X(C20H37N2O2PRu)]
 Deg. of freedom   183
 Full point group                 C1      NOp   1
 Largest Abelian subgroup         C1      NOp   1
 Largest concise Abelian subgroup C1      NOp   1
                         Standard orientation:                         
 ---------------------------------------------------------------------
 Center     Atomic      Atomic             Coordinates (Angstroms)
 Number     Number       Type             X           Y           Z
 ---------------------------------------------------------------------
      1          7           0       -0.766491    1.418428   -0.071539
      2          6           0       -2.010359    1.852794    0.216700
      3          6           0        0.147935    2.263755   -0.599871
      4          6           0       -2.371241    3.183840    0.053720
      5          6           0       -1.417286    4.084849   -0.414037
      6          6           0       -0.151682    3.615751   -0.753201
      7          6           0       -2.922990    0.782410    0.732074
      8          1           0       -3.385741    3.505093    0.292837
      9          1           0       -1.665774    5.140259   -0.536830
     10          1           0        0.604469    4.289018   -1.158939
     11          6           0        1.431934    1.649252   -1.068826
     12          7           0       -2.688423   -0.504043    0.044796
     13          1           0       -3.976778    1.105864    0.664331
     14          1           0       -2.697354    0.618530    1.799058
     15          1           0        1.294444    1.387722   -2.132468
     16         15           0        1.736122   -0.003833   -0.236351
     17          1           0        2.269508    2.359791   -1.008524
     18         44           0       -0.406322   -0.585069    0.127531
     19          6           0       -3.131831   -0.436299   -1.370161
     20          6           0        2.763876   -0.972208   -1.509997
     21          6           0       -3.384592   -1.573803    0.796779
     22          6           0        2.816260    0.487154    1.258458
     23          6           0        1.791726   -1.545295   -2.546072
     24          6           0        3.423423   -2.155209   -0.797683
     25          6           0        3.813525   -0.124072   -2.230860
     26          6           0        2.062261    1.609076    1.982209
     27          6           0        4.207078    1.001442    0.889865
     28          6           0        2.949129   -0.700185    2.215249
     29          1           0       -0.382627   -0.543000   -1.522053
     30          1           0       -2.580343    0.396118   -1.829219
     31          6           0       -4.626686   -0.275891   -1.605633
     32          1           0       -2.755569   -1.344931   -1.855626
     33          1           0       -2.934359   -1.583702    1.800410
     34          6           0       -3.242215   -2.940353    0.160873
     35          1           0       -4.450148   -1.297131    0.928214
     36          6           0       -0.428805   -0.791623    2.012315
     37          8           0       -0.176391   -2.637433   -0.184453
     38          1           0        0.118224   -3.047410    0.637042
     39          1           0       -2.176361   -3.122475   -0.072932
     40          1           0       -3.843186   -3.038471   -0.756187
     41          1           0       -3.599039   -3.703829    0.868592
     42          1           0       -4.807813   -0.217488   -2.689429
     43          1           0       -5.034954    0.645102   -1.161545
     44          1           0       -5.208375   -1.127093   -1.222303
     45          1           0        2.375989   -2.147074   -3.263860
     46          1           0        1.274631   -0.755853   -3.111620
     47          1           0        1.033841   -2.175383   -2.055697
     48          1           0        3.865727   -2.824093   -1.554523
     49          1           0        2.675309   -2.734491   -0.235908
     50          1           0        4.232391   -1.846683   -0.120663
     51          1           0        4.329544   -0.758899   -2.970770
     52          1           0        4.578835    0.288287   -1.562347
     53          1           0        3.358372    0.708542   -2.788579
     54          1           0        4.852684    0.207762    0.489931
     55          1           0        4.696475    1.393063    1.797768
     56          1           0        4.173866    1.823428    0.158316
     57          1           0        3.522523   -1.528152    1.780666
     58          1           0        1.969802   -1.087468    2.520842
     59          1           0        3.477307   -0.369287    3.125374
     60          1           0        2.570816    1.824242    2.936346
     61          1           0        1.025088    1.325208    2.208798
     62          1           0        2.047567    2.543275    1.400920
     63          8           0       -0.466736   -0.987677    3.158239
 ---------------------------------------------------------------------
 Rotational constants (GHZ):           0.2513929           0.1591278           0.1359954
 General basis read from cards:  (5D, 7F)
 ======================================================================================================
                                       Pseudopotential Parameters
 ======================================================================================================
  Center     Atomic      Valence      Angular      Power
  Number     Number     Electrons     Momentum     of R      Exponent        Coefficient   SO-Coeffient
 ======================================================================================================
    1          7
                                   No pseudopotential on this center.
    2          6
                                   No pseudopotential on this center.
    3          6
                                   No pseudopotential on this center.
    4          6
                                   No pseudopotential on this center.
    5          6
                                   No pseudopotential on this center.
    6          6
                                   No pseudopotential on this center.
    7          6
                                   No pseudopotential on this center.
    8          1
                                   No pseudopotential on this center.
    9          1
                                   No pseudopotential on this center.
   10          1
                                   No pseudopotential on this center.
   11          6
                                   No pseudopotential on this center.
   12          7
                                   No pseudopotential on this center.
   13          1
                                   No pseudopotential on this center.
   14          1
                                   No pseudopotential on this center.
   15          1
                                   No pseudopotential on this center.
   16         15
                                   No pseudopotential on this center.
   17          1
                                   No pseudopotential on this center.
   18         44           16
                                      G and up 
                                                     2        1.0000000        0.00000000    0.00000000
                                      S - G
                                                     2       11.1052690      209.82297100    0.00000000
                                                     2        5.4147450       30.65472600    0.00000000
                                      P - G
                                                     2        9.7712710      146.33618200    0.00000000
                                                     2        5.0739910       24.12787700    0.00000000
                                      D - G
                                                     2        7.6714230       67.51589700    0.00000000
                                                     2        4.1365650        9.87010400    0.00000000
                                      F - G
                                                     2       11.3600000      -28.34061600    0.00000000
                                                     2        5.6800000       -4.94462900    0.00000000
   19          6
                                   No pseudopotential on this center.
   20          6
                                   No pseudopotential on this center.
   21          6
                                   No pseudopotential on this center.
   22          6
                                   No pseudopotential on this center.
   23          6
                                   No pseudopotential on this center.
   24          6
                                   No pseudopotential on this center.
   25          6
                                   No pseudopotential on this center.
   26          6
                                   No pseudopotential on this center.
   27          6
                                   No pseudopotential on this center.
   28          6
                                   No pseudopotential on this center.
   29          1
                                   No pseudopotential on this center.
   30          1
                                   No pseudopotential on this center.
   31          6
                                   No pseudopotential on this center.
   32          1
                                   No pseudopotential on this center.
   33          1
                                   No pseudopotential on this center.
   34          6
                                   No pseudopotential on this center.
   35          1
                                   No pseudopotential on this center.
   36          6
                                   No pseudopotential on this center.
   37          8
                                   No pseudopotential on this center.
   38          1
                                   No pseudopotential on this center.
   39          1
                                   No pseudopotential on this center.
   40          1
                                   No pseudopotential on this center.
   41          1
                                   No pseudopotential on this center.
   42          1
                                   No pseudopotential on this center.
   43          1
                                   No pseudopotential on this center.
   44          1
                                   No pseudopotential on this center.
   45          1
                                   No pseudopotential on this center.
   46          1
                                   No pseudopotential on this center.
   47          1
                                   No pseudopotential on this center.
   48          1
                                   No pseudopotential on this center.
   49          1
                                   No pseudopotential on this center.
   50          1
                                   No pseudopotential on this center.
   51          1
                                   No pseudopotential on this center.
   52          1
                                   No pseudopotential on this center.
   53          1
                                   No pseudopotential on this center.
   54          1
                                   No pseudopotential on this center.
   55          1
                                   No pseudopotential on this center.
   56          1
                                   No pseudopotential on this center.
   57          1
                                   No pseudopotential on this center.
   58          1
                                   No pseudopotential on this center.
   59          1
                                   No pseudopotential on this center.
   60          1
                                   No pseudopotential on this center.
   61          1
                                   No pseudopotential on this center.
   62          1
                                   No pseudopotential on this center.
   63          8
                                   No pseudopotential on this center.
 ======================================================================================================
 There are  1473 symmetry adapted cartesian basis functions of A   symmetry.
 There are  1308 symmetry adapted basis functions of A   symmetry.
  1308 basis functions,  2037 primitive gaussians,  1473 cartesian basis functions
   109 alpha electrons      109 beta electrons
       nuclear repulsion energy      3242.3127945505 Hartrees.
 NAtoms=   63 NActive=   63 NUniq=   63 SFac= 1.00D+00 NAtFMM=   60 NAOKFM=T Big=T
 Integral buffers will be    131072 words long.
 Raffenetti 2 integral format.
 Two-electron integral symmetry is turned on.
 Nuclear repulsion after empirical dispersion term =     3242.2192221919 Hartrees.
 ------------------------------------------------------------------------------
 Polarizable Continuum Model (PCM)
 =================================
 Model                : PCM.
 Atomic radii         : SMD-Coulomb.
 Polarization charges : Total charges.
 Charge compensation  : None.
 Solution method      : On-the-fly selection.
 Cavity type          : VdW (van der Waals Surface) (Alpha=1.000).
 Cavity algorithm     : GePol (No added spheres)
                        Default sphere list used, NSphG=   63.
                        Lebedev-Laikov grids with approx.  5.0 points / Ang**2.
                        Smoothing algorithm: York/Karplus (Gamma=1.0000).
                        Polarization charges: spherical gaussians, with
                                              point-specific exponents (IZeta= 3).
                        Self-potential: point-specific (ISelfS= 7).
                        Self-field    : sphere-specific E.n sum rule (ISelfD= 2).
 Solvent              : Water, Eps=  78.355300 Eps(inf)=   1.777849
 ------------------------------------------------------------------------------
 ------------------------------------------------------------------------------
 Atomic radii for non-electrostatic terms: SMD-CDS.
 ------------------------------------------------------------------------------
 Nuclear repulsion after PCM non-electrostatic terms =     3242.2367708738 Hartrees.
 One-electron integrals computed using PRISM.
   1 Symmetry operations used in ECPInt.
 ECPInt:  NShTT=  119316 NPrTT=  422118 LenC2=  102839 LenP2D=  238961.
 LDataN:  DoStor=T MaxTD1= 7 Len=  274
 Number of processors reduced to  11 by ecpmxn.
 NBasis=  1308 RedAO= T EigKep=  3.99D-05  NBF=  1308
 NBsUse=  1308 1.00D-06 EigRej= -1.00D+00 NBFU=  1308
 Defaulting to unpruned grid for atomic number  44.
 ExpMin= 1.60D-02 ExpMax= 3.12D+05 ExpMxC= 9.87D+02 IAcc=3 IRadAn=         5 AccDes= 0.00D+00
 Harris functional with IExCor= 1009 and IRadAn=       5 diagonalized for initial guess.
 HarFok:  IExCor= 1009 AccDes= 0.00D+00 IRadAn=         5 IDoV= 1 UseB2=F ITyADJ=14
 ICtDFT=  3500011 ScaDFX=  1.000000  1.000000  1.000000  1.000000
 Defaulting to unpruned grid for atomic number  44.
 FoFCou: FMM=F IPFlag=           0 FMFlag=      100000 FMFlg1=        2001
         NFxFlg=           0 DoJE=T BraDBF=F KetDBF=T FulRan=T
         wScrn=  0.000000 ICntrl=       500 IOpCl=  0 I1Cent=   200000004 NGrid=           0
         NMat0=    1 NMatS0=      1 NMatT0=    0 NMatD0=    1 NMtDS0=    0 NMtDT0=    0
 Petite list used in FoFCou.
 Requested convergence on RMS density matrix=1.00D-08 within 128 cycles.
 Requested convergence on MAX density matrix=1.00D-06.
 Requested convergence on             energy=1.00D-06.
 No special actions if energy rises.
 Defaulting to unpruned grid for atomic number  44.
 Defaulting to unpruned grid for atomic number  44.
 Defaulting to unpruned grid for atomic number  44.
 Defaulting to unpruned grid for atomic number  44.
 Defaulting to unpruned grid for atomic number  44.
 Defaulting to unpruned grid for atomic number  44.
 Defaulting to unpruned grid for atomic number  44.
 Defaulting to unpruned grid for atomic number  44.
 Defaulting to unpruned grid for atomic number  44.
 Defaulting to unpruned grid for atomic number  44.
 Defaulting to unpruned grid for atomic number  44.
 Defaulting to unpruned grid for atomic number  44.
 Defaulting to unpruned grid for atomic number  44.
 Defaulting to unpruned grid for atomic number  44.
 Defaulting to unpruned grid for atomic number  44.
 Defaulting to unpruned grid for atomic number  44.
 Inv3:  Mode=1 IEnd=    45864300.
 Iteration    1 A*A^-1 deviation from unit magnitude is 1.11D-14 for    461.
 Iteration    1 A*A^-1 deviation from orthogonality  is 3.25D-15 for   2218   1212.
 Iteration    1 A^-1*A deviation from unit magnitude is 1.11D-14 for    461.
 Iteration    1 A^-1*A deviation from orthogonality  is 3.76D-15 for   1951   1875.
 EnCoef did     3 forward-backward iterations
 Error on total polarization charges =  0.07897
 SCF Done:  E(RPBE1PBE) =  -1479.79176793     A.U. after   17 cycles
            NFock= 17  Conv=0.26D-08     -V/T= 2.0493
 SMD-CDS (non-electrostatic) energy       (kcal/mol) =      11.01
 (included in total energy above)
 DoSCS=F DFT=T ScalE2(SS,OS)=  1.000000  1.000000
 Range of M.O.s used for correlation:     1  1308
 NBasis=  1308 NAE=   109 NBE=   109 NFC=     0 NFV=     0
 NROrb=   1308 NOA=   109 NOB=   109 NVA=  1199 NVB=  1199

 **** Warning!!: The largest alpha MO coefficient is  0.20422785D+02

 NEqPCM:  Using equilibrium solvation (IEInf=0, Eps=  78.3553, EpsInf=   1.7778)
          Differentiating once with respect to magnetic field using GIAOs.
          Electric field/nuclear overlap derivatives assumed to be zero.
 Defaulting to unpruned grid for atomic number  44.
   1 Symmetry operations used in ECPInt.
 ECPInt:  NShTT=  119316 NPrTT=  422118 LenC2=  119317 LenP2D=  422118.
 LDataN:  DoStor=T MaxTD1= 8 Len=  415
 Number of processors reduced to   7 by ecpmxn.
 FoFJK:  IHMeth= 1 ICntrl=    6127 DoSepK=F KAlg= 0 I1Cent=           0 FoldK=F
 IRaf=         1 NMat=       1 IRICut=       1 DoRegI=T DoRafI=F ISym2E= 0 IDoP0=0 IntGTp=1.
 Defaulting to unpruned grid for atomic number  44.
 Defaulting to unpruned grid for atomic number  44.
 Defaulting to unpruned grid for atomic number  44.
 Defaulting to unpruned grid for atomic number  44.
 Defaulting to unpruned grid for atomic number  44.
 Defaulting to unpruned grid for atomic number  44.
 Defaulting to unpruned grid for atomic number  44.
 Defaulting to unpruned grid for atomic number  44.
 Defaulting to unpruned grid for atomic number  44.
 Defaulting to unpruned grid for atomic number  44.
 Defaulting to unpruned grid for atomic number  44.
 Defaulting to unpruned grid for atomic number  44.
 Defaulting to unpruned grid for atomic number  44.
 Defaulting to unpruned grid for atomic number  44.
 Defaulting to unpruned grid for atomic number  44.
 Defaulting to unpruned grid for atomic number  44.
          There are     3 degrees of freedom in the 1st order CPHF.  IDoFFX=0 NUNeed=     3.
      3 vectors produced by pass  0 Test12= 4.36D-12 3.33D-08 XBig12= 8.71D+01 1.59D+00.
 AX will form     3 AO Fock derivatives at one time.
      3 vectors produced by pass  1 Test12= 4.36D-12 3.33D-08 XBig12= 6.46D-01 4.15D-01.
      3 vectors produced by pass  2 Test12= 4.36D-12 3.33D-08 XBig12= 1.34D-02 4.14D-02.
      3 vectors produced by pass  3 Test12= 4.36D-12 3.33D-08 XBig12= 1.33D-04 3.88D-03.
      3 vectors produced by pass  4 Test12= 4.36D-12 3.33D-08 XBig12= 5.59D-07 2.28D-04.
      3 vectors produced by pass  5 Test12= 4.36D-12 3.33D-08 XBig12= 4.10D-09 2.16D-05.
      3 vectors produced by pass  6 Test12= 4.36D-12 3.33D-08 XBig12= 5.48D-11 1.69D-06.
      3 vectors produced by pass  7 Test12= 4.36D-12 3.33D-08 XBig12= 2.55D-13 1.33D-07.
 InvSVY:  IOpt=1 It=  1 EMax= 5.33D-15
 Solved reduced A of dimension    24 with     3 vectors.
 Calculating GIAO nuclear magnetic shielding tensors.
 SCF GIAO Magnetic shielding tensor (ppm):
      1  N    Isotropic =   -42.8784   Anisotropy =   400.5375
   XX=  -133.0698   YX=    17.0173   ZX=   129.7698
   XY=    10.1863   YY=  -142.2121   ZY=    79.4975
   XZ=   166.0153   YZ=    63.5425   ZZ=   146.6468
   Eigenvalues:  -202.0092  -150.7725   224.1466
      2  C    Isotropic =    21.4887   Anisotropy =   164.9754
   XX=   -35.7160   YX=   -37.4599   ZX=    58.0102
   XY=   -14.5925   YY=    -7.1941   ZY=    35.6191
   XZ=    51.4678   YZ=    39.0809   ZZ=   107.3764
   Eigenvalues:   -75.1245     8.1184   131.4723
      3  C    Isotropic =    17.8285   Anisotropy =   174.7783
   XX=   -50.1964   YX=    22.2198   ZX=    73.9143
   XY=     9.1311   YY=     1.2023   ZY=    20.2970
   XZ=    72.8153   YZ=     4.9831   ZZ=   102.4795
   Eigenvalues:   -80.9304     0.0684   134.3473
      4  C    Isotropic =    63.6150   Anisotropy =   167.8854
   XX=   -14.7550   YX=    34.1097   ZX=    50.9462
   XY=    43.9125   YY=    49.8538   ZY=    11.3276
   XZ=    46.3146   YZ=    27.6143   ZZ=   155.7461
   Eigenvalues:   -40.1005    55.4068   175.5386
      5  C    Isotropic =    47.0217   Anisotropy =   201.0081
   XX=    32.3793   YX=    28.8009   ZX=    43.0094
   XY=    26.1106   YY=   -50.1911   ZY=    35.9792
   XZ=    43.7246   YZ=    40.6936   ZZ=   158.8768
   Eigenvalues:   -61.5052    21.5432   181.0271
      6  C    Isotropic =    62.2694   Anisotropy =   165.5774
   XX=    31.7096   YX=   -27.9744   ZX=    56.2855
   XY=   -39.2087   YY=    14.0619   ZY=    43.2502
   XZ=    66.9374   YZ=    39.2418   ZZ=   141.0367
   Eigenvalues:   -40.0192    54.1730   172.6543
      7  C    Isotropic =   121.4880   Anisotropy =    49.8004
   XX=   112.5028   YX=     4.3275   ZX=   -10.2767
   XY=     3.4288   YY=   152.2194   ZY=    11.8624
   XZ=    -8.3908   YZ=    10.9917   ZZ=    99.7419
   Eigenvalues:    92.4353   117.3405   154.6883
      8  H    Isotropic =    23.6790   Anisotropy =     7.3063
   XX=    23.0257   YX=     0.2856   ZX=    -1.0495
   XY=     0.7876   YY=    28.1597   ZY=    -1.5084
   XZ=    -0.7579   YZ=    -1.7160   ZZ=    19.8516
   Eigenvalues:    19.3764    23.1108    28.5499
      9  H    Isotropic =    23.3804   Anisotropy =     4.2814
   XX=    25.6647   YX=     0.0800   ZX=    -1.7965
   XY=    -0.0432   YY=    24.1855   ZY=    -0.9188
   XZ=    -1.8075   YZ=    -0.3853   ZZ=    20.2909
   Eigenvalues:    19.6579    24.2485    26.2346
     10  H    Isotropic =    23.5842   Anisotropy =     8.6495
   XX=    24.5232   YX=    -3.5430   ZX=    -0.8890
   XY=    -3.4060   YY=    26.8482   ZY=    -0.8897
   XZ=    -0.8989   YZ=    -0.6355   ZZ=    19.3810
   Eigenvalues:    18.9358    22.4662    29.3505
     11  C    Isotropic =   145.9656   Anisotropy =    31.3584
   XX=   157.4199   YX=   -15.6388   ZX=    -8.9334
   XY=    -3.6555   YY=   152.6583   ZY=    -8.8374
   XZ=   -21.7124   YZ=    -6.6902   ZZ=   127.8186
   Eigenvalues:   117.8209   153.2048   166.8712
     12  N    Isotropic =   199.1904   Anisotropy =    60.8053
   XX=   178.7076   YX=    11.5064   ZX=   -11.1819
   XY=    11.9603   YY=   237.3582   ZY=    -0.7949
   XZ=    12.9576   YZ=     5.5787   ZZ=   181.5052
   Eigenvalues:   176.4122   181.4317   239.7272
     13  H    Isotropic =    26.8903   Anisotropy =     8.1617
   XX=    28.8249   YX=    -2.7309   ZX=    -0.5411
   XY=    -3.8392   YY=    28.6429   ZY=     1.5752
   XZ=    -0.3596   YZ=     2.2891   ZZ=    23.2031
   Eigenvalues:    22.5181    25.8214    32.3315
     14  H    Isotropic =    27.0201   Anisotropy =     4.0894
   XX=    25.0039   YX=    -0.1464   ZX=     0.4139
   XY=    -1.6847   YY=    26.7477   ZY=     3.1653
   XZ=     0.0205   YZ=    -0.8842   ZZ=    29.3088
   Eigenvalues:    24.5166    26.7973    29.7464
     15  H    Isotropic =    27.6882   Anisotropy =     4.6263
   XX=    24.8357   YX=    -2.9326   ZX=     0.2267
   XY=    -2.4823   YY=    27.6039   ZY=    -0.9538
   XZ=    -2.0979   YZ=     0.0775   ZZ=    30.6248
   Eigenvalues:    23.0401    29.2521    30.7723
     16  P    Isotropic =   201.1314   Anisotropy =   247.3077
   XX=   334.3707   YX=    35.9679   ZX=   -40.2573
   XY=    88.8015   YY=   128.8618   ZY=     2.4170
   XZ=   -79.0920   YZ=     5.5871   ZZ=   140.1618
   Eigenvalues:    97.9992   139.3918   366.0032
     17  H    Isotropic =    27.4733   Anisotropy =     7.9832
   XX=    28.1609   YX=     1.7701   ZX=    -0.3285
   XY=     2.0653   YY=    31.3554   ZY=    -2.2155
   XZ=    -0.5935   YZ=    -2.4493   ZZ=    22.9038
   Eigenvalues:    22.3026    27.3219    32.7955
     18  Ru   Isotropic =  -514.4341   Anisotropy =   265.7849
   XX=  -441.4766   YX=   -39.4350   ZX=    48.8232
   XY=   -25.7312   YY=  -348.4552   ZY=    27.8745
   XZ=    26.6086   YZ=    36.3387   ZZ=  -753.3705
   Eigenvalues:  -760.9815  -445.0767  -337.2442
     19  C    Isotropic =   133.7762   Anisotropy =    47.5161
   XX=   151.3257   YX=    -3.1615   ZX=    12.6061
   XY=    -8.0268   YY=    93.1866   ZY=    -5.8316
   XZ=     8.8593   YZ=     2.6876   ZZ=   156.8164
   Eigenvalues:    92.6484   143.2266   165.4536
     20  C    Isotropic =   147.8164   Anisotropy =    21.8460
   XX=   148.3328   YX=    -4.9168   ZX=    -7.3878
   XY=    -5.9616   YY=   143.8056   ZY=     8.0588
   XZ=    -5.2708   YZ=    10.3067   ZZ=   151.3109
   Eigenvalues:   137.5066   143.5623   162.3804
     21  C    Isotropic =   131.4968   Anisotropy =    55.5578
   XX=   118.2051   YX=    18.5766   ZX=   -17.2252
   XY=    19.0390   YY=   149.3607   ZY=   -13.8264
   XZ=   -16.2035   YZ=   -15.5384   ZZ=   126.9247
   Eigenvalues:   104.1382   121.8170   168.5353
     22  C    Isotropic =   144.6710   Anisotropy =    26.3016
   XX=   147.2736   YX=     1.1155   ZX=     9.3895
   XY=     3.1235   YY=   137.3826   ZY=     6.6866
   XZ=    15.2168   YZ=     6.1288   ZZ=   149.3568
   Eigenvalues:   133.2109   138.5967   162.2054
     23  C    Isotropic =   151.1697   Anisotropy =    36.0597
   XX=   163.6132   YX=     4.2358   ZX=    10.3792
   XY=     7.0671   YY=   138.1590   ZY=    14.1347
   XZ=    13.3968   YZ=    13.6254   ZZ=   151.7370
   Eigenvalues:   129.4182   148.8815   175.2095
     24  C    Isotropic =   158.7625   Anisotropy =    30.8305
   XX=   151.9101   YX=    -9.9984   ZX=     9.4696
   XY=   -10.9449   YY=   165.6855   ZY=   -11.9044
   XZ=     6.1108   YZ=    -8.7716   ZZ=   158.6918
   Eigenvalues:   145.6890   151.2823   179.3161
     25  C    Isotropic =   160.7761   Anisotropy =    38.9869
   XX=   167.0627   YX=    17.7167   ZX=   -12.0013
   XY=    13.4109   YY=   158.8392   ZY=    -6.8223
   XZ=   -13.8899   YZ=    -9.6817   ZZ=   156.4263
   Eigenvalues:   146.2463   149.3146   186.7674
     26  C    Isotropic =   159.7540   Anisotropy =    42.1067
   XX=   156.5066   YX=   -18.1651   ZX=    -7.0732
   XY=   -16.8776   YY=   165.5770   ZY=    17.7776
   XZ=    -4.0421   YZ=    14.4301   ZZ=   157.1784
   Eigenvalues:   140.0818   151.3551   187.8251
     27  C    Isotropic =   160.3930   Anisotropy =    31.2659
   XX=   174.6808   YX=     6.2003   ZX=   -14.4799
   XY=     8.3846   YY=   151.2542   ZY=    -1.5913
   XZ=    -7.5854   YZ=     0.6435   ZZ=   155.2441
   Eigenvalues:   147.4501   152.4921   181.2370
     28  C    Isotropic =   160.0203   Anisotropy =    37.3276
   XX=   146.0555   YX=    -2.7228   ZX=     6.2508
   XY=    -3.1700   YY=   170.0072   ZY=   -15.5127
   XZ=     3.7425   YZ=   -18.2186   ZZ=   163.9982
   Eigenvalues:   144.5883   150.5672   184.9053
     29  H    Isotropic =    31.1365   Anisotropy =    22.6411
   XX=    46.1664   YX=     1.3654   ZX=     2.1788
   XY=    -0.3760   YY=    37.6730   ZY=     1.5294
   XZ=    -0.2646   YZ=     4.2789   ZZ=     9.5700
   Eigenvalues:     9.2509    37.9279    46.2305
     30  H    Isotropic =    28.7395   Anisotropy =     7.2346
   XX=    32.3876   YX=     4.1220   ZX=     0.2536
   XY=     2.5217   YY=    23.8006   ZY=    -2.1396
   XZ=     1.1121   YZ=     0.4361   ZZ=    30.0304
   Eigenvalues:    22.5249    30.1311    33.5626
     31  C    Isotropic =   181.6802   Anisotropy =    15.5205
   XX=   191.6620   YX=    -0.2286   ZX=     0.9858
   XY=    -0.1283   YY=   174.4113   ZY=     0.6306
   XZ=     3.3715   YZ=    -0.6328   ZZ=   178.9673
   Eigenvalues:   174.4094   178.6040   192.0272
     32  H    Isotropic =    27.7660   Anisotropy =     5.1230
   XX=    29.4067   YX=    -1.9410   ZX=    -0.3611
   XY=    -2.0468   YY=    24.5837   ZY=     0.8673
   XZ=    -0.5719   YZ=     3.6089   ZZ=    29.3076
   Eigenvalues:    23.2208    28.8959    31.1814
     33  H    Isotropic =    27.4697   Anisotropy =     4.5847
   XX=    25.9677   YX=     1.7159   ZX=    -0.2557
   XY=     1.8729   YY=    26.5036   ZY=    -2.0335
   XZ=     2.7797   YZ=    -0.7403   ZZ=    29.9379
   Eigenvalues:    23.8510    28.0320    30.5262
     34  C    Isotropic =   177.0595   Anisotropy =    13.6374
   XX=   173.7314   YX=     1.0155   ZX=    -4.4916
   XY=    -1.1584   YY=   185.6125   ZY=     2.3786
   XZ=    -4.1402   YZ=     2.8242   ZZ=   171.8345
   Eigenvalues:   168.1351   176.8923   186.1511
     35  H    Isotropic =    28.0314   Anisotropy =     7.7811
   XX=    31.5053   YX=     0.2316   ZX=    -2.9074
   XY=     1.6346   YY=    26.7005   ZY=    -1.3059
   XZ=    -3.5636   YZ=    -0.5886   ZZ=    25.8884
   Eigenvalues:    24.3107    26.5647    33.2188
     36  C    Isotropic =   -37.8116   Anisotropy =   418.2163
   XX=  -169.4908   YX=     4.8415   ZX=   -13.4903
   XY=     3.4723   YY=  -174.6253   ZY=   -53.9684
   XZ=   -14.1158   YZ=   -73.7380   ZZ=   230.6813
   Eigenvalues:  -184.7208  -169.7132   240.9993
     37  O    Isotropic =   473.2119   Anisotropy =   239.5824
   XX=   516.6449   YX=    32.5419   ZX=    20.0450
   XY=    27.4404   YY=   291.9239   ZY=   -38.9638
   XZ=    46.1865   YZ=  -106.8755   ZZ=   611.0668
   Eigenvalues:   270.6399   516.0623   632.9334
     38  H    Isotropic =    35.6283   Anisotropy =    24.3156
   XX=    26.4901   YX=    -3.2174   ZX=     6.3779
   XY=    -1.9778   YY=    33.2889   ZY=    -7.0221
   XZ=     7.6377   YZ=    -5.8400   ZZ=    47.1059
   Eigenvalues:    24.2843    30.7619    51.8387
     39  H    Isotropic =    26.9261   Anisotropy =    17.1746
   XX=    38.0791   YX=    -0.4006   ZX=    -2.2974
   XY=    -0.1371   YY=    24.0493   ZY=     0.8686
   XZ=    -2.4387   YZ=     1.6934   ZZ=    18.6500
   Eigenvalues:    18.1065    24.2960    38.3759
     40  H    Isotropic =    30.2346   Anisotropy =     7.8286
   XX=    29.2017   YX=     1.7902   ZX=     3.9705
   XY=     2.3407   YY=    31.0097   ZY=     1.8115
   XZ=     4.1160   YZ=     1.4589   ZZ=    30.4924
   Eigenvalues:    25.6949    29.5552    35.4537
     41  H    Isotropic =    30.4900   Anisotropy =    11.3530
   XX=    27.9042   YX=     3.4186   ZX=    -1.8673
   XY=     3.4824   YY=    34.8412   ZY=    -4.2382
   XZ=    -1.2516   YZ=    -3.3272   ZZ=    28.7246
   Eigenvalues:    26.4803    26.9311    38.0587
     42  H    Isotropic =    30.8341   Anisotropy =    11.8644
   XX=    30.3251   YX=    -0.2319   ZX=     4.7776
   XY=    -0.3728   YY=    26.2597   ZY=    -0.9492
   XZ=     4.8803   YZ=    -0.3787   ZZ=    35.9176
   Eigenvalues:    26.2138    27.5449    38.7437
     43  H    Isotropic =    30.1607   Anisotropy =     8.8267
   XX=    32.1481   YX=    -4.6614   ZX=     0.5201
   XY=    -3.5763   YY=    31.6393   ZY=     2.3034
   XZ=     2.8038   YZ=     2.5587   ZZ=    26.6948
   Eigenvalues:    24.2620    30.1750    36.0452
     44  H    Isotropic =    30.2458   Anisotropy =     8.8519
   XX=    33.9002   YX=     4.3163   ZX=     0.8224
   XY=     3.0277   YY=    30.1458   ZY=    -2.6555
   XZ=     1.8662   YZ=    -1.7602   ZZ=    26.6914
   Eigenvalues:    24.6407    29.9497    36.1470
     45  H    Isotropic =    30.5689   Anisotropy =     9.3396
   XX=    28.7666   YX=    -0.4220   ZX=    -1.1915
   XY=    -1.1791   YY=    29.6890   ZY=     4.4805
   XZ=    -1.7547   YZ=     4.8183   ZZ=    33.2511
   Eigenvalues:    26.4760    28.4354    36.7953
     46  H    Isotropic =    29.4785   Anisotropy =     6.2492
   XX=    29.9325   YX=    -2.3524   ZX=     2.6945
   XY=    -1.9378   YY=    27.1361   ZY=     0.1660
   XZ=     2.4692   YZ=    -0.3699   ZZ=    31.3668
   Eigenvalues:    25.6956    29.0952    33.6446
     47  H    Isotropic =    28.4490   Anisotropy =     9.7558
   XX=    31.5829   YX=     5.2199   ZX=    -3.6454
   XY=     3.7692   YY=    26.3756   ZY=     1.1946
   XZ=    -2.6756   YZ=     0.3419   ZZ=    27.3884
   Eigenvalues:    22.6130    27.7811    34.9528
     48  H    Isotropic =    30.2956   Anisotropy =    10.2985
   XX=    29.7753   YX=    -4.2335   ZX=    -1.7012
   XY=    -4.8106   YY=    32.6639   ZY=     3.3239
   XZ=    -1.4423   YZ=     2.3635   ZZ=    28.4475
   Eigenvalues:    26.3149    27.4106    37.1613
     49  H    Isotropic =    29.9507   Anisotropy =     6.0010
   XX=    29.7501   YX=     0.1478   ZX=    -1.9754
   XY=     0.4189   YY=    31.7969   ZY=    -2.9030
   XZ=    -2.1997   YZ=    -3.0897   ZZ=    28.3050
   Eigenvalues:    25.8312    30.0695    33.9513
     50  H    Isotropic =    29.5448   Anisotropy =     7.1450
   XX=    30.5334   YX=    -1.4156   ZX=     3.7937
   XY=    -3.2331   YY=    27.8590   ZY=     0.9731
   XZ=     3.8460   YZ=     1.7247   ZZ=    30.2420
   Eigenvalues:    24.5270    29.7993    34.3082
     51  H    Isotropic =    30.3325   Anisotropy =    10.7994
   XX=    31.5074   YX=    -1.0143   ZX=    -5.3576
   XY=    -0.4186   YY=    27.3896   ZY=     1.4375
   XZ=    -5.4082   YZ=     2.2847   ZZ=    32.1005
   Eigenvalues:    25.9198    27.5456    37.5321
     52  H    Isotropic =    29.3172   Anisotropy =     7.3914
   XX=    31.6975   YX=     3.8907   ZX=     1.1358
   XY=     3.9804   YY=    26.2766   ZY=     2.8296
   XZ=    -0.6332   YZ=     2.0538   ZZ=    29.9774
   Eigenvalues:    23.5404    30.1664    34.2448
     53  H    Isotropic =    29.8313   Anisotropy =     7.3332
   XX=    28.0638   YX=     0.0251   ZX=    -2.9598
   XY=    -1.2228   YY=    31.1685   ZY=    -3.4920
   XZ=    -2.1075   YZ=    -3.9558   ZZ=    30.2615
   Eigenvalues:    25.0916    29.6822    34.7201
     54  H    Isotropic =    29.5137   Anisotropy =     7.5270
   XX=    33.4240   YX=    -2.2912   ZX=    -1.8459
   XY=    -0.7055   YY=    27.0519   ZY=     2.9351
   XZ=    -1.0415   YZ=     3.1595   ZZ=    28.0653
   Eigenvalues:    24.4641    29.5453    34.5317
     55  H    Isotropic =    30.1942   Anisotropy =    10.8221
   XX=    33.0092   YX=     3.2829   ZX=     3.6538
   XY=     3.5585   YY=    27.4592   ZY=     2.8435
   XZ=     3.7897   YZ=     2.3655   ZZ=    30.1142
   Eigenvalues:    25.5858    27.5879    37.4090
     56  H    Isotropic =    29.5677   Anisotropy =     7.1630
   XX=    29.6543   YX=     3.9432   ZX=    -1.0698
   XY=     3.1442   YY=    29.9911   ZY=    -2.9653
   XZ=     0.5200   YZ=    -2.5583   ZZ=    29.0576
   Eigenvalues:    25.3411    29.0190    34.3430
     57  H    Isotropic =    29.6612   Anisotropy =     6.8829
   XX=    27.1591   YX=    -3.5996   ZX=    -0.1052
   XY=    -4.6486   YY=    31.7980   ZY=     1.1992
   XZ=     0.5523   YZ=     0.0080   ZZ=    30.0267
   Eigenvalues:    24.7002    30.0336    34.2499
     58  H    Isotropic =    29.2647   Anisotropy =     8.6618
   XX=    32.7909   YX=     2.2095   ZX=    -0.5451
   XY=     3.3196   YY=    26.7286   ZY=    -3.0383
   XZ=    -2.5743   YZ=    -3.6920   ZZ=    28.2744
   Eigenvalues:    23.8647    28.8901    35.0392
     59  H    Isotropic =    30.5531   Anisotropy =    10.5102
   XX=    29.1118   YX=    -0.1587   ZX=     4.0297
   XY=    -0.3594   YY=    27.2923   ZY=    -1.4369
   XZ=     4.5145   YZ=    -0.7347   ZZ=    35.2553
   Eigenvalues:    26.7569    27.3426    37.5599
     60  H    Isotropic =    30.9697   Anisotropy =    10.3255
   XX=    28.3042   YX=     0.0228   ZX=     1.5784
   XY=     1.2652   YY=    29.5728   ZY=     4.8468
   XZ=     3.3074   YZ=     3.3304   ZZ=    35.0322
   Eigenvalues:    26.9444    28.1114    37.8534
     61  H    Isotropic =    30.1526   Anisotropy =     6.8588
   XX=    34.5194   YX=     1.1710   ZX=    -0.7471
   XY=     1.0248   YY=    26.5559   ZY=     3.2533
   XZ=    -0.6637   YZ=    -0.9238   ZZ=    29.3825
   Eigenvalues:    25.9487    29.7841    34.7252
     62  H    Isotropic =    30.6291   Anisotropy =     6.8514
   XX=    27.9415   YX=    -2.1841   ZX=     1.9432
   XY=    -0.1415   YY=    34.8174   ZY=    -0.6828
   XZ=     4.2482   YZ=    -0.2387   ZZ=    29.1283
   Eigenvalues:    25.3437    31.3469    35.1967
     63  O    Isotropic =   -48.8693   Anisotropy =   542.7680
   XX=  -225.8433   YX=     8.6086   ZX=   -44.0669
   XY=     0.7373   YY=  -215.1834   ZY=   -92.3057
   XZ=   -18.4547   YZ=   -95.2224   ZZ=   294.4188
   Eigenvalues:  -232.0655  -227.5184   312.9760
 End of Minotr F.D. properties file   721 does not exist.
 End of Minotr F.D. properties file   722 does not exist.
 End of Minotr F.D. properties file   788 does not exist.

 **********************************************************************

            Population analysis using the SCF density.

 **********************************************************************

 Orbital symmetries:
       Occupied  (A) (A) (A) (A) (A) (A) (A) (A) (A) (A) (A) (A)
                 (A) (A) (A) (A) (A) (A) (A) (A) (A) (A) (A) (A)
                 (A) (A) (A) (A) (A) (A) (A) (A) (A) (A) (A) (A)
                 (A) (A) (A) (A) (A) (A) (A) (A) (A) (A) (A) (A)
                 (A) (A) (A) (A) (A) (A) (A) (A) (A) (A) (A) (A)
                 (A) (A) (A) (A) (A) (A) (A) (A) (A) (A) (A) (A)
                 (A) (A) (A) (A) (A) (A) (A) (A) (A) (A) (A) (A)
                 (A) (A) (A) (A) (A) (A) (A) (A) (A) (A) (A) (A)
                 (A) (A) (A) (A) (A) (A) (A) (A) (A) (A) (A) (A)
                 (A)
       Virtual   (A) (A) (A) (A) (A) (A) (A) (A) (A) (A) (A) (A)
                 (A) (A) (A) (A) (A) (A) (A) (A) (A) (A) (A) (A)
                 (A) (A) (A) (A) (A) (A) (A) (A) (A) (A) (A) (A)
                 (A) (A) (A) (A) (A) (A) (A) (A) (A) (A) (A) (A)
                 (A) (A) (A) (A) (A) (A) (A) (A) (A) (A) (A) (A)
                 (A) (A) (A) (A) (A) (A) (A) (A) (A) (A) (A) (A)
                 (A) (A) (A) (A) (A) (A) (A) (A) (A) (A) (A) (A)
                 (A) (A) (A) (A) (A) (A) (A) (A) (A) (A) (A) (A)
                 (A) (A) (A) (A) (A) (A) (A) (A) (A) (A) (A) (A)
                 (A) (A) (A) (A) (A) (A) (A) (A) (A) (A) (A) (A)
                 (A) (A) (A) (A) (A) (A) (A) (A) (A) (A) (A) (A)
                 (A) (A) (A) (A) (A) (A) (A) (A) (A) (A) (A) (A)
                 (A) (A) (A) (A) (A) (A) (A) (A) (A) (A) (A) (A)
                 (A) (A) (A) (A) (A) (A) (A) (A) (A) (A) (A) (A)
                 (A) (A) (A) (A) (A) (A) (A) (A) (A) (A) (A) (A)
                 (A) (A) (A) (A) (A) (A) (A) (A) (A) (A) (A) (A)
                 (A) (A) (A) (A) (A) (A) (A) (A) (A) (A) (A) (A)
                 (A) (A) (A) (A) (A) (A) (A) (A) (A) (A) (A) (A)
                 (A) (A) (A) (A) (A) (A) (A) (A) (A) (A) (A) (A)
                 (A) (A) (A) (A) (A) (A) (A) (A) (A) (A) (A) (A)
                 (A) (A) (A) (A) (A) (A) (A) (A) (A) (A) (A) (A)
                 (A) (A) (A) (A) (A) (A) (A) (A) (A) (A) (A) (A)
                 (A) (A) (A) (A) (A) (A) (A) (A) (A) (A) (A) (A)
                 (A) (A) (A) (A) (A) (A) (A) (A) (A) (A) (A) (A)
                 (A) (A) (A) (A) (A) (A) (A) (A) (A) (A) (A) (A)
                 (A) (A) (A) (A) (A) (A) (A) (A) (A) (A) (A) (A)
                 (A) (A) (A) (A) (A) (A) (A) (A) (A) (A) (A) (A)
                 (A) (A) (A) (A) (A) (A) (A) (A) (A) (A) (A) (A)
                 (A) (A) (A) (A) (A) (A) (A) (A) (A) (A) (A) (A)
                 (A) (A) (A) (A) (A) (A) (A) (A) (A) (A) (A) (A)
                 (A) (A) (A) (A) (A) (A) (A) (A) (A) (A) (A) (A)
                 (A) (A) (A) (A) (A) (A) (A) (A) (A) (A) (A) (A)
                 (A) (A) (A) (A) (A) (A) (A) (A) (A) (A) (A) (A)
                 (A) (A) (A) (A) (A) (A) (A) (A) (A) (A) (A) (A)
                 (A) (A) (A) (A) (A) (A) (A) (A) (A) (A) (A) (A)
                 (A) (A) (A) (A) (A) (A) (A) (A) (A) (A) (A) (A)
                 (A) (A) (A) (A) (A) (A) (A) (A) (A) (A) (A) (A)
                 (A) (A) (A) (A) (A) (A) (A) (A) (A) (A) (A) (A)
                 (A) (A) (A) (A) (A) (A) (A) (A) (A) (A) (A) (A)
                 (A) (A) (A) (A) (A) (A) (A) (A) (A) (A) (A) (A)
                 (A) (A) (A) (A) (A) (A) (A) (A) (A) (A) (A) (A)
                 (A) (A) (A) (A) (A) (A) (A) (A) (A) (A) (A) (A)
                 (A) (A) (A) (A) (A) (A) (A) (A) (A) (A) (A) (A)
                 (A) (A) (A) (A) (A) (A) (A) (A) (A) (A) (A) (A)
                 (A) (A) (A) (A) (A) (A) (A) (A) (A) (A) (A) (A)
                 (A) (A) (A) (A) (A) (A) (A) (A) (A) (A) (A) (A)
                 (A) (A) (A) (A) (A) (A) (A) (A) (A) (A) (A) (A)
                 (A) (A) (A) (A) (A) (A) (A) (A) (A) (A) (A) (A)
                 (A) (A) (A) (A) (A) (A) (A) (A) (A) (A) (A) (A)
                 (A) (A) (A) (A) (A) (A) (A) (A) (A) (A) (A) (A)
                 (A) (A) (A) (A) (A) (A) (A) (A) (A) (A) (A) (A)
                 (A) (A) (A) (A) (A) (A) (A) (A) (A) (A) (A) (A)
                 (A) (A) (A) (A) (A) (A) (A) (A) (A) (A) (A) (A)
                 (A) (A) (A) (A) (A) (A) (A) (A) (A) (A) (A) (A)
                 (A) (A) (A) (A) (A) (A) (A) (A) (A) (A) (A) (A)
                 (A) (A) (A) (A) (A) (A) (A) (A) (A) (A) (A) (A)
                 (A) (A) (A) (A) (A) (A) (A) (A) (A) (A) (A) (A)
                 (A) (A) (A) (A) (A) (A) (A) (A) (A) (A) (A) (A)
[...]
 Alpha virt. eigenvalues --    1.74379   1.74880   1.75607   1.77406   1.78001
 Alpha virt. eigenvalues --    1.78486   1.79170   1.80241   1.81257   1.81916
 Alpha virt. eigenvalues --    1.83257   1.84462   1.84972   1.85383   1.85867
 Alpha virt. eigenvalues --    1.87737   1.88306   1.89551   1.90190   1.91251
 Alpha virt. eigenvalues --    1.93133   1.93432   1.94145   1.95356   1.95657
 Alpha virt. eigenvalues --    1.97081   1.97555   1.98542   1.99123   2.01319
 Alpha virt. eigenvalues --    2.01711   2.02768   2.03985   2.04481   2.06748
 Alpha virt. eigenvalues --    2.08113   2.08924   2.09630   2.10173   2.12744
 Alpha virt. eigenvalues --    2.14678   2.15729   2.17191   2.18310   2.21270
 Alpha virt. eigenvalues --    2.22593   2.23014   2.25620   2.25844   2.26695
 Alpha virt. eigenvalues --    2.29346   2.30607   2.31004   2.31716   2.33795
 Alpha virt. eigenvalues --    2.34171   2.35121   2.35921   2.36704   2.36947
 Alpha virt. eigenvalues --    2.37477   2.38106   2.38982   2.39519   2.40464
 Alpha virt. eigenvalues --    2.41765   2.42596   2.43157   2.44021   2.44224
 Alpha virt. eigenvalues --    2.44684   2.45884   2.45999   2.46720   2.47613
 Alpha virt. eigenvalues --    2.48277   2.49183   2.49241   2.50073   2.51188
 Alpha virt. eigenvalues --    2.51520   2.51990   2.53123   2.53416   2.54048
 Alpha virt. eigenvalues --    2.54230   2.55210   2.55993   2.56208   2.56727
 Alpha virt. eigenvalues --    2.57356   2.58049   2.58532   2.59752   2.60139
 Alpha virt. eigenvalues --    2.60506   2.60868   2.61378   2.62594   2.63517
 Alpha virt. eigenvalues --    2.63608   2.64117   2.64750   2.65093   2.65780
 Alpha virt. eigenvalues --    2.66053   2.66435   2.66906   2.67212   2.67832
 Alpha virt. eigenvalues --    2.68473   2.69108   2.69440   2.69538   2.70121
 Alpha virt. eigenvalues --    2.70619   2.71189   2.71904   2.72152   2.72824
 Alpha virt. eigenvalues --    2.73015   2.73314   2.73900   2.74511   2.75138
 Alpha virt. eigenvalues --    2.75839   2.76139   2.77358   2.77848   2.78105
 Alpha virt. eigenvalues --    2.78282   2.78567   2.79170   2.79494   2.80004
 Alpha virt. eigenvalues --    2.80175   2.80334   2.81301   2.81704   2.82006
 Alpha virt. eigenvalues --    2.82502   2.82993   2.83104   2.83273   2.84080
 Alpha virt. eigenvalues --    2.84796   2.85109   2.85229   2.85803   2.85897
 Alpha virt. eigenvalues --    2.86111   2.86642   2.87049   2.87765   2.88668
 Alpha virt. eigenvalues --    2.89068   2.89467   2.90214   2.90539   2.90740
 Alpha virt. eigenvalues --    2.91130   2.91451   2.91927   2.92470   2.93321
 Alpha virt. eigenvalues --    2.93729   2.94203   2.94792   2.94972   2.95970
 Alpha virt. eigenvalues --    2.96189   2.96564   2.97192   2.97716   2.97912
 Alpha virt. eigenvalues --    2.98310   2.98917   2.99663   3.00127   3.00687
 Alpha virt. eigenvalues --    3.01369   3.01842   3.01903   3.02373   3.02828
 Alpha virt. eigenvalues --    3.03007   3.03083   3.03787   3.04032   3.04277
 Alpha virt. eigenvalues --    3.04913   3.04946   3.05231   3.05655   3.06155
 Alpha virt. eigenvalues --    3.06790   3.06994   3.07473   3.07670   3.07831
 Alpha virt. eigenvalues --    3.08367   3.08710   3.08847   3.09255   3.09527
 Alpha virt. eigenvalues --    3.09954   3.10060   3.10700   3.10852   3.10956
 Alpha virt. eigenvalues --    3.11424   3.11935   3.12321   3.12630   3.12813
 Alpha virt. eigenvalues --    3.13314   3.13679   3.14161   3.14477   3.15013
 Alpha virt. eigenvalues --    3.15192   3.15580   3.16052   3.16233   3.16416
 Alpha virt. eigenvalues --    3.16863   3.17244   3.17689   3.17789   3.18470
 Alpha virt. eigenvalues --    3.18676   3.19063   3.19334   3.20029   3.20233
 Alpha virt. eigenvalues --    3.20616   3.20822   3.21409   3.22020   3.22373
 Alpha virt. eigenvalues --    3.22694   3.22873   3.23356   3.23551   3.24042
 Alpha virt. eigenvalues --    3.24882   3.25224   3.25689   3.26268   3.26479
 Alpha virt. eigenvalues --    3.26771   3.27321   3.28135   3.28370   3.28668
 Alpha virt. eigenvalues --    3.29478   3.29894   3.30072   3.30373   3.30931
 Alpha virt. eigenvalues --    3.31639   3.31785   3.32046   3.32858   3.33161
 Alpha virt. eigenvalues --    3.33443   3.33524   3.34385   3.34580   3.35690
 Alpha virt. eigenvalues --    3.35829   3.36279   3.36310   3.37170   3.37456
 Alpha virt. eigenvalues --    3.37641   3.37799   3.37929   3.38489   3.39125
 Alpha virt. eigenvalues --    3.39176   3.39595   3.40243   3.40537   3.41251
 Alpha virt. eigenvalues --    3.41569   3.41888   3.42188   3.42470   3.42719
 Alpha virt. eigenvalues --    3.43319   3.44072   3.44200   3.44639   3.44836
 Alpha virt. eigenvalues --    3.45303   3.45527   3.45869   3.46218   3.46321
 Alpha virt. eigenvalues --    3.46759   3.47181   3.47606   3.47966   3.48441
 Alpha virt. eigenvalues --    3.48780   3.49333   3.49570   3.50080   3.50135
 Alpha virt. eigenvalues --    3.50452   3.51555   3.51783   3.51991   3.52328
 Alpha virt. eigenvalues --    3.52795   3.53195   3.53449   3.54048   3.54199
 Alpha virt. eigenvalues --    3.54755   3.55228   3.55681   3.56470   3.56633
 Alpha virt. eigenvalues --    3.57185   3.57706   3.58411   3.58738   3.58856
 Alpha virt. eigenvalues --    3.59493   3.59846   3.60260   3.60316   3.61127
 Alpha virt. eigenvalues --    3.61544   3.61673   3.62730   3.63173   3.63352
 Alpha virt. eigenvalues --    3.63446   3.64023   3.64308   3.65331   3.66050
 Alpha virt. eigenvalues --    3.66236   3.66923   3.67305   3.68203   3.68950
 Alpha virt. eigenvalues --    3.69602   3.70147   3.70760   3.71358   3.71774
 Alpha virt. eigenvalues --    3.72231   3.72617   3.73007   3.73397   3.73906
 Alpha virt. eigenvalues --    3.74437   3.74797   3.75525   3.75555   3.75918
 Alpha virt. eigenvalues --    3.76373   3.76940   3.77820   3.78164   3.78415
 Alpha virt. eigenvalues --    3.79022   3.79739   3.80089   3.80347   3.80552
 Alpha virt. eigenvalues --    3.81266   3.81809   3.82559   3.83334   3.83684
 Alpha virt. eigenvalues --    3.83937   3.84894   3.84926   3.85498   3.86606
 Alpha virt. eigenvalues --    3.87103   3.87256   3.87792   3.88072   3.88832
 Alpha virt. eigenvalues --    3.89205   3.89479   3.90592   3.91234   3.91621
 Alpha virt. eigenvalues --    3.92589   3.92990   3.93149   3.93861   3.94475
 Alpha virt. eigenvalues --    3.94617   3.95064   3.96122   3.96238   3.96760
 Alpha virt. eigenvalues --    3.97212   3.97676   3.97928   3.98029   3.98376
 Alpha virt. eigenvalues --    3.98807   3.99449   4.00352   4.00620   4.01216
 Alpha virt. eigenvalues --    4.01886   4.02436   4.02852   4.03407   4.04023
 Alpha virt. eigenvalues --    4.04267   4.05183   4.05646   4.06283   4.06635
 Alpha virt. eigenvalues --    4.06836   4.07063   4.07609   4.08219   4.08762
 Alpha virt. eigenvalues --    4.09077   4.09623   4.09943   4.10638   4.11143
 Alpha virt. eigenvalues --    4.11424   4.11603   4.11930   4.12531   4.12913
 Alpha virt. eigenvalues --    4.13183   4.13328   4.13869   4.13975   4.14359
 Alpha virt. eigenvalues --    4.15167   4.15496   4.15851   4.16107   4.16554
 Alpha virt. eigenvalues --    4.17099   4.17179   4.17704   4.18370   4.19155
 Alpha virt. eigenvalues --    4.19449   4.19739   4.20176   4.20353   4.21096
 Alpha virt. eigenvalues --    4.21184   4.22084   4.22679   4.22906   4.23075
 Alpha virt. eigenvalues --    4.23350   4.23890   4.24827   4.24944   4.25185
 Alpha virt. eigenvalues --    4.25472   4.25814   4.25967   4.26874   4.26934
 Alpha virt. eigenvalues --    4.27566   4.28130   4.28305   4.28604   4.28969
 Alpha virt. eigenvalues --    4.29422   4.29751   4.30191   4.30508   4.30909
 Alpha virt. eigenvalues --    4.31258   4.31750   4.32477   4.32550   4.32739
 Alpha virt. eigenvalues --    4.33410   4.33667   4.34061   4.34360   4.34738
 Alpha virt. eigenvalues --    4.35131   4.35692   4.35867   4.36295   4.37268
 Alpha virt. eigenvalues --    4.37403   4.37710   4.38244   4.38818   4.39274
 Alpha virt. eigenvalues --    4.40388   4.40694   4.41395   4.42097   4.42193
 Alpha virt. eigenvalues --    4.42551   4.43268   4.43871   4.43995   4.44454
 Alpha virt. eigenvalues --    4.45405   4.45823   4.46220   4.47038   4.47859
 Alpha virt. eigenvalues --    4.48317   4.48594   4.48762   4.49864   4.50629
 Alpha virt. eigenvalues --    4.51051   4.51573   4.52854   4.54604   4.54756
 Alpha virt. eigenvalues --    4.55056   4.55454   4.56391   4.57269   4.57812
 Alpha virt. eigenvalues --    4.58520   4.58658   4.59779   4.60062   4.61009
 Alpha virt. eigenvalues --    4.62237   4.64109   4.64544   4.66761   4.67481
 Alpha virt. eigenvalues --    4.68389   4.69804   4.70663   4.72090   4.72282
 Alpha virt. eigenvalues --    4.72725   4.74165   4.74406   4.75173   4.75775
 Alpha virt. eigenvalues --    4.77189   4.77953   4.79076   4.79144   4.79915
 Alpha virt. eigenvalues --    4.81517   4.82270   4.82643   4.83020   4.83681
 Alpha virt. eigenvalues --    4.83889   4.84169   4.84811   4.85199   4.86186
 Alpha virt. eigenvalues --    4.86444   4.86814   4.86965   4.87514   4.88063
 Alpha virt. eigenvalues --    4.88942   4.89278   4.89438   4.90288   4.90917
 Alpha virt. eigenvalues --    4.90963   4.91187   4.91732   4.92159   4.93439
 Alpha virt. eigenvalues --    4.93572   4.94415   4.95171   4.96035   4.96297
 Alpha virt. eigenvalues --    4.96781   4.97155   4.97612   4.98173   4.99866
 Alpha virt. eigenvalues --    5.00591   5.01722   5.01931   5.03685   5.04831
 Alpha virt. eigenvalues --    5.05905   5.06787   5.06956   5.08261   5.08690
 Alpha virt. eigenvalues --    5.09103   5.09624   5.10012   5.11518   5.12543
 Alpha virt. eigenvalues --    5.13481   5.13607   5.14195   5.14467   5.15905
 Alpha virt. eigenvalues --    5.16538   5.17000   5.17520   5.19411   5.19508
 Alpha virt. eigenvalues --    5.20135   5.20751   5.21320   5.21986   5.22456
 Alpha virt. eigenvalues --    5.22765   5.23576   5.24322   5.24610   5.25006
 Alpha virt. eigenvalues --    5.25376   5.26545   5.26707   5.27517   5.27762
 Alpha virt. eigenvalues --    5.28507   5.28723   5.29687   5.30267   5.31005
 Alpha virt. eigenvalues --    5.32208   5.33439   5.34188   5.34497   5.34877
 Alpha virt. eigenvalues --    5.35263   5.35442   5.36160   5.36372   5.37407
 Alpha virt. eigenvalues --    5.37423   5.37819   5.38430   5.38947   5.39305
 Alpha virt. eigenvalues --    5.39690   5.40314   5.41372   5.41685   5.42010
 Alpha virt. eigenvalues --    5.42979   5.43024   5.43803   5.44754   5.45042
 Alpha virt. eigenvalues --    5.45556   5.46368   5.47655   5.48007   5.48589
 Alpha virt. eigenvalues --    5.49652   5.49947   5.50333   5.51143   5.51312
 Alpha virt. eigenvalues --    5.51653   5.52267   5.52901   5.53512   5.55441
 Alpha virt. eigenvalues --    5.55833   5.56980   5.57388   5.57638   5.58175
 Alpha virt. eigenvalues --    5.58802   5.59734   5.60530   5.60944   5.61101
 Alpha virt. eigenvalues --    5.63774   5.65029   5.67548   5.70587   5.72513
 Alpha virt. eigenvalues --    5.77240   5.77644   5.85790   5.86507   5.88895
 Alpha virt. eigenvalues --    5.92589   5.95991   5.98738   5.99109   6.00084
 Alpha virt. eigenvalues --    6.00795   6.01755   6.02453   6.02805   6.03644
 Alpha virt. eigenvalues --    6.03944   6.04329   6.04923   6.05882   6.06349
 Alpha virt. eigenvalues --    6.06757   6.08846   6.10524   6.11624   6.11943
 Alpha virt. eigenvalues --    6.12532   6.14427   6.16966   6.18775   6.21029
 Alpha virt. eigenvalues --    6.23010   6.26521   6.28378   6.30755   6.33313
 Alpha virt. eigenvalues --    6.34178   6.36583   6.41249   6.56008   6.57153
 Alpha virt. eigenvalues --    6.61487   6.73678   6.76404   6.77436   6.77706
 Alpha virt. eigenvalues --    6.84779   6.85891   6.94262   7.06550   7.17539
 Alpha virt. eigenvalues --    7.38149   8.18178   9.72891   9.84577  10.04486
 Alpha virt. eigenvalues --   10.70038  12.14965  12.26173  12.32661  12.81135
 Alpha virt. eigenvalues --   12.88054  12.98032  13.18200  13.25486  13.45574
 Alpha virt. eigenvalues --   13.55733  13.62405  13.65095  13.74855  13.83656
 Alpha virt. eigenvalues --   13.85186  13.87873  13.91492  13.93792  15.05580
 Alpha virt. eigenvalues --   35.41865  35.69817  35.78600  46.31070
          Condensed to atoms (all electrons):
 Mulliken charges:
               1
     1  N   -0.157366
     2  C    0.087784
     3  C    0.064914
     4  C   -0.156205
     5  C   -0.142092
     6  C   -0.136951
     7  C   -0.090609
     8  H    0.161956
     9  H    0.162097
    10  H    0.161789
    11  C   -0.250017
    12  N   -0.220031
    13  H    0.126420
    14  H    0.169915
    15  H    0.162872
    16  P    0.123480
    17  H    0.148767
    18  Ru   0.622826
    19  C   -0.125956
    20  C    0.005877
    21  C   -0.108986
    22  C   -0.005041
    23  C   -0.366687
    24  C   -0.345812
    25  C   -0.333647
    26  C   -0.355829
    27  C   -0.333439
    28  C   -0.353509
    29  H   -0.397549
    30  H    0.140990
    31  C   -0.323100
    32  H    0.143016
    33  H    0.138199
    34  C   -0.361973
    35  H    0.111307
    36  C   -0.084569
    37  O   -0.702357
    38  H    0.255932
    39  H    0.134579
    40  H    0.106169
    41  H    0.111124
    42  H    0.116611
    43  H    0.110410
    44  H    0.111283
    45  H    0.103624
    46  H    0.120034
    47  H    0.147769
    48  H    0.106451
    49  H    0.120187
    50  H    0.121387
    51  H    0.107414
    52  H    0.121449
    53  H    0.112983
    54  H    0.117635
    55  H    0.107106
    56  H    0.117126
    57  H    0.119864
    58  H    0.132019
    59  H    0.107797
    60  H    0.112305
    61  H    0.143727
    62  H    0.116571
    63  O   -0.262042
 Sum of Mulliken charges =  -0.00000
 Mulliken charges with hydrogens summed into heavy atoms:
               1
     1  N   -0.157366
     2  C    0.087784
     3  C    0.064914
     4  C    0.005751
     5  C    0.020004
     6  C    0.024838
     7  C    0.205726
    11  C    0.061623
    12  N   -0.220031
    16  P    0.123480
    18  Ru   0.225277
    19  C    0.158050
    20  C    0.005877
    21  C    0.140520
    22  C   -0.005041
    23  C    0.004740
    24  C    0.002213
    25  C    0.008199
    26  C    0.016774
    27  C    0.008428
    28  C    0.006172
    31  C    0.015205
    34  C   -0.010100
    36  C   -0.084569
    37  O   -0.446425
    63  O   -0.262042
 Electronic spatial extent (au):  <R**2>=           9478.3561
 Charge=             -0.0000 electrons
 Dipole moment (field-independent basis, Debye):
    X=             -0.8756    Y=             11.3492    Z=             -0.7916  Tot=             11.4104
 Quadrupole moment (field-independent basis, Debye-Ang):
   XX=           -147.9716   YY=           -178.7089   ZZ=           -192.5447
   XY=             -5.2772   XZ=             -2.7639   YZ=             -6.7028
 Traceless Quadrupole moment (field-independent basis, Debye-Ang):
   XX=             25.1034   YY=             -5.6338   ZZ=            -19.4696
   XY=             -5.2772   XZ=             -2.7639   YZ=             -6.7028
 Octapole moment (field-independent basis, Debye-Ang**2):
  XXX=            -75.4852  YYY=             98.3269  ZZZ=            -19.1404  XYY=            -24.1281
  XXY=              9.2693  XXZ=              8.7947  XZZ=             -0.4858  YZZ=              0.1177
  YYZ=              4.5277  XYZ=             -2.2648
 Hexadecapole moment (field-independent basis, Debye-Ang**3):
 XXXX=          -6712.5749 YYYY=          -3352.2039 ZZZZ=          -2390.8210 XXXY=            -46.0365
 XXXZ=            -20.7487 YYYX=           -105.9111 YYYZ=           -161.2147 ZZZX=             17.4430
 ZZZY=             25.5972 XXYY=          -1669.4318 XXZZ=          -1504.8142 YYZZ=          -1004.8471
 XXYZ=             21.3392 YYXZ=            -32.6269 ZZXY=             20.0206
 N-N= 3.242236770874D+03 E-N=-9.922018780266D+03  KE= 1.410231836271D+03
 1\1\GINC-NODE153\SP\RPBE1PBE\GenECP\C20H37N2O2P1Ru1\JS1212\11-Nov-2018
 \0\\# nmr genecp pbe1pbe EmpiricalDispersion=GD3BJ scrf=(SMD,solvent=w
 ater) geom=allcheck\\Title Card Required\\0,1\N,0,-0.065572841,1.48495
 72174,0.1343677737\C,0,-1.0984302408,2.3188566129,0.3726571948\C,0,1.0
 768888343,1.951937701,-0.4193432727\C,0,-1.0018246506,3.6829137345,0.1
 307993599\C,0,0.1961290308,4.1929427159,-0.3646016276\C,0,1.238221835,
 3.3162297806,-0.6514075275\C,0,-2.313078669,1.6383103434,0.9255716045\
 H,0,-1.8550750949,4.3321400005,0.3309461541\H,0,0.3082884678,5.2625562
 291,-0.5491587783\H,0,2.1744162543,3.679901247,-1.0767996461\C,0,2.088
 8875001,0.9245918772,-0.827518324\N,0,-2.5125021942,0.30865535,0.31354
 07618\H,0,-3.2020489476,2.2847871353,0.8184270188\H,0,-2.1560934455,1.
 47136838,2.0043257983\H,0,1.8754461795,0.66167245,-1.8782097843\P,0,1.
 8315187175,-0.6859497155,0.0988461326\H,0,3.1132171984,1.3236084718,-0
 .7879423607\Ru,0,-0.3837650689,-0.5109104112,0.448400943\C,0,-2.905995
 3317,0.4362387157,-1.1120076316\C,0,2.4870203704,-2.0094370818,-1.0990
 287709\C,0,-3.5230026873,-0.4285972162,1.1071790666\C,0,3.0097418245,-
 0.4907209948,1.587434426\C,0,1.3828376237,-2.2910167346,-2.1229672368\
 C,0,2.7199383801,-3.3000829304,-0.310444409\C,0,3.75854617,-1.59523078
 35,-1.8422629127\C,0,2.6644311963,0.8561210664,2.2338213669\C,0,4.4931
 123519,-0.4828286883,1.220997671\C,0,2.7432384414,-1.5987434288,2.6092
 663008\H,0,-0.3439850708,-0.5741605607,-1.2001973604\H,0,-2.1107306365
 ,1.0139891505,-1.603484825\C,0,-4.2647492495,1.0638413012,-1.387093459
 6\H,0,-2.8479447834,-0.5719257495,-1.5399052849\H,0,-3.1031732909,-0.5
 275965911,2.119121113\C,0,-3.835918806,-1.8006060184,0.5488057136\H,0,
 -4.4388848513,0.1891107434,1.2011490019\C,0,-0.4769286788,-0.589601050
 1,2.3406767652\O,0,-0.8399088249,-2.5396555864,0.2521255725\H,0,-0.698
 0571573,-2.975435498,1.1004807935\H,0,-2.8884829179,-2.3351560306,0.34
 75591543\H,0,-4.4337873194,-1.7490719815,-0.3740645441\H,0,-4.42521632
 63,-2.362799518,1.288909265\H,0,-4.4142957585,1.1157594746,-2.47602455
 56\H,0,-4.3488825271,2.0917650351,-1.0018409618\H,0,-5.094544801,0.473
 9054717,-0.9708422204\H,0,1.7386293932,-3.0913885288,-2.7949340992\H,0
 ,1.1549053399,-1.4097206044,-2.7408786529\H,0,0.4590008475,-2.60852013
 31,-1.6154384416\H,0,2.9196922428,-4.1194626358,-1.0207694134\H,0,1.82
 1860719,-3.5687590734,0.2658398094\H,0,3.5838874386,-3.2352164643,0.36
 58385186\H,0,4.0390735367,-2.4056765064,-2.5359702107\H,0,4.6153758232
 ,-1.4186319549,-1.1809724084\H,0,3.6032819363,-0.6930721387,-2.4533785
 936\H,0,4.843133011,-1.465932999,0.8779618968\H,0,5.0820016858,-0.2215
 503391,2.1166021151\H,0,4.7332730806,0.2609942377,0.4457712496\H,0,3.0
 138669842,-2.5925125223,2.2319675715\H,0,1.6903810776,-1.6253633113,2.
 9146172165\H,0,3.3488111092,-1.4073075785,3.5111677234\H,0,3.213368094
 3,0.9473905886,3.1854734642\H,0,1.5910692005,0.9414232459,2.4535241568
 \H,0,2.9586075605,1.7083608036,1.6029583567\O,0,-0.5796292861,-0.69594
 77214,3.4944362833\\Version=ES64L-G16RevA.03\State=1-A\HF=-1479.791767
 9\RMSD=2.551e-09\Dipole=1.1416322,4.3055813,-0.5582467\Quadrupole=13.7
 805655,0.1924827,-13.9730482,-10.3428737,-2.9243504,-4.9026261\PG=C01 
 [X(C20H37N2O2P1Ru1)]\\@


      HUMANKIND PERIODICALLY GOES THROUGH A SPEEDUP OF ITS AFFAIRS, 
      THEREBY EXPERIENCING THE RACE BETWEEN THE RENEWABLE VITALITY
      OF THE LIVING, AND THE BECKONING VITIATION OF DECADENCE.
      IN THIS PERIODIC RACE, ANY PAUSE BECOMES A LUXURY.
      ONLY THEN CAN ONE REFLECT THAT ALL IS PERMITTED;
      ALL IS POSSIBLE.

                              -- THE APOCRYPHA OF MUAD'DIB
                                 CHILDREN OF DUNE, BY FRANK HERBERT
 Job cpu time:       0 days 22 hours 43 minutes 57.1 seconds.
 Elapsed time:       0 days  1 hours 30 minutes 18.3 seconds.
 File lengths (MBytes):  RWF=   1219 Int=      0 D2E=      0 Chk=    154 Scr=      1
 Normal termination of Gaussian 16 at Sun Nov 11 15:46:55 2018.
