 Entering Gaussian System, Link 0=g16
 Initial command:
 /cluster/chemistry/gaussian/g16/l1.exe "/scratch/js1212.13851/scratch/Gau-12913.inp" -scrdir="/scratch/js1212.13851/scratch/"
 Entering Link 1 = /cluster/chemistry/gaussian/g16/l1.exe PID=     12915.
  
 Copyright (c) 1988,1990,1992,1993,1995,1998,2003,2009,2016,
            Gaussian, Inc.  All Rights Reserved.
  
 This is part of the Gaussian(R) 16 program.  It is based on
 the Gaussian(R) 09 system (copyright 2009, Gaussian, Inc.),
 the Gaussian(R) 03 system (copyright 2003, Gaussian, Inc.),
 the Gaussian(R) 98 system (copyright 1998, Gaussian, Inc.),
 the Gaussian(R) 94 system (copyright 1995, Gaussian, Inc.),
 the Gaussian 92(TM) system (copyright 1992, Gaussian, Inc.),
 the Gaussian 90(TM) system (copyright 1990, Gaussian, Inc.),
 the Gaussian 88(TM) system (copyright 1988, Gaussian, Inc.),
 the Gaussian 86(TM) system (copyright 1986, Carnegie Mellon
 University), and the Gaussian 82(TM) system (copyright 1983,
 Carnegie Mellon University). Gaussian is a federally registered
 trademark of Gaussian, Inc.
  
 This software contains proprietary and confidential information,
 including trade secrets, belonging to Gaussian, Inc.
  
 This software is provided under written license and may be
 used, copied, transmitted, or stored only in accord with that
 written license.
  
 The following legend is applicable only to US Government
 contracts under FAR:
  
                    RESTRICTED RIGHTS LEGEND
  
 Use, reproduction and disclosure by the US Government is
 subject to restrictions as set forth in subparagraphs (a)
 and (c) of the Commercial Computer Software - Restricted
 Rights clause in FAR 52.227-19.
  
 Gaussian, Inc.
 340 Quinnipiac St., Bldg. 40, Wallingford CT 06492
  
  
 ---------------------------------------------------------------
 Warning -- This program may not be used in any manner that
 competes with the business of Gaussian, Inc. or will provide
 assistance to any competitor of Gaussian, Inc.  The licensee
 of this program is prohibited from giving any competitor of
 Gaussian, Inc. access to this program.  By using this program,
 the user acknowledges that Gaussian, Inc. is engaged in the
 business of creating and licensing software in the field of
 computational chemistry and represents and warrants to the
 licensee that it is not a competitor of Gaussian, Inc. and that
 it will not use this program in any manner prohibited above.
 ---------------------------------------------------------------
  

 Cite this work as:
 Gaussian 16, Revision A.03,
 M. J. Frisch, G. W. Trucks, H. B. Schlegel, G. E. Scuseria, 
 M. A. Robb, J. R. Cheeseman, G. Scalmani, V. Barone, 
 G. A. Petersson, H. Nakatsuji, X. Li, M. Caricato, A. V. Marenich, 
 J. Bloino, B. G. Janesko, R. Gomperts, B. Mennucci, H. P. Hratchian, 
 J. V. Ortiz, A. F. Izmaylov, J. L. Sonnenberg, D. Williams-Young, 
 F. Ding, F. Lipparini, F. Egidi, J. Goings, B. Peng, A. Petrone, 
 T. Henderson, D. Ranasinghe, V. G. Zakrzewski, J. Gao, N. Rega, 
 G. Zheng, W. Liang, M. Hada, M. Ehara, K. Toyota, R. Fukuda, 
 J. Hasegawa, M. Ishida, T. Nakajima, Y. Honda, O. Kitao, H. Nakai, 
 T. Vreven, K. Throssell, J. A. Montgomery, Jr., J. E. Peralta, 
 F. Ogliaro, M. J. Bearpark, J. J. Heyd, E. N. Brothers, K. N. Kudin, 
 V. N. Staroverov, T. A. Keith, R. Kobayashi, J. Normand, 
 K. Raghavachari, A. P. Rendell, J. C. Burant, S. S. Iyengar, 
 J. Tomasi, M. Cossi, J. M. Millam, M. Klene, C. Adamo, R. Cammi, 
 J. W. Ochterski, R. L. Martin, K. Morokuma, O. Farkas, 
 J. B. Foresman, and D. J. Fox, Gaussian, Inc., Wallingford CT, 2016.
 
 ******************************************
 Gaussian 16:  ES64L-G16RevA.03 25-Dec-2016
                 9-Nov-2018 
 ******************************************
 %rwf=/scratch/js1212.13851/2-Full-Cis-B-GPOF-Titan.rwf
 %nosave
 %nprocshared=20
 Will use up to   20 processors via shared memory.
 %mem=3000MB
 %chk=/scratch/js1212.13851/2-Full-Cis-B-GPOF-Titan.chk
 ---------------------------------------------------
 # opt freq genecp pbe1pbe EmpiricalDispersion=GD3BJ
 ---------------------------------------------------
 1/18=20,19=15,26=3,38=1/1,3;
 2/9=110,12=2,17=6,18=5,40=1/2;
 3/5=7,11=2,16=1,17=8,25=1,30=1,71=1,74=-13,124=41/1,2,3;
 4//1;
 5/5=2,38=5/2;
 6/7=2,8=2,9=2,10=2,28=1/1;
 7//1,2,3,16;
 1/18=20,19=15,26=3/3(2);
 2/9=110/2;
 99//99;
 2/9=110/2;
 3/5=7,6=1,11=2,16=1,17=8,25=1,30=1,71=1,74=-13,82=7,124=41/1,2,3;
 4/5=5,16=3,69=1/1;
 5/5=2,38=5/2;
 7//1,2,3,16;
 1/18=20,19=15,26=3/3(-5);
 2/9=110/2;
 6/7=2,8=2,9=2,10=2,19=2,28=1/1;
 99/9=1/99;
 -------------------
 Title Card Required
 -------------------
 Symbolic Z-matrix:
 Charge =  0 Multiplicity = 1
 N                    -0.03591   1.43603  -0.04328 
 C                    -1.0307    2.26698   0.29579 
 C                     1.10355   1.89124  -0.58922 
 C                    -0.91755   3.6404    0.11089 
 C                     0.26817   4.13962  -0.42499 
 C                     1.28849   3.26223  -0.77724 
 C                    -2.19694   1.58009   0.94003 
 H                    -1.73896   4.30303   0.38615 
 H                     0.39281   5.21375  -0.57649 
 H                     2.2191    3.63038  -1.21106 
 C                     2.09802   0.85103  -1.00418 
 N                    -2.51209   0.28712   0.29557 
 H                    -3.07588   2.24692   0.97897 
 H                    -1.90664   1.34638   1.97779 
 H                     1.80518   0.54625  -2.02543 
 P                     1.85282  -0.73668  -0.03911 
 H                     3.12481   1.24447  -1.01781 
 Ru                   -0.4067   -0.6291    0.1175 
 C                    -3.10662   0.48811  -1.04961 
 C                     2.71826  -2.04122  -1.13623 
 C                    -3.41458  -0.44765   1.21505 
 C                     2.82984  -0.49818   1.58747 
 C                     1.73595  -2.42481  -2.25008 
 C                     3.03114  -3.30559  -0.32959 
 C                     3.99765  -1.50426  -1.78799 
 C                     2.367     0.82938   2.2 
 C                     4.34814  -0.44242   1.41157 
 C                     2.44704  -1.62016   2.55907 
 H                    -0.5076   -0.85552  -1.48769 
 H                    -2.30731   0.89609  -1.68514 
 C                    -4.3866    1.30888  -1.11895 
 H                    -3.2832   -0.51547  -1.45748 
 H                    -2.81996  -0.64856   2.11799 
 C                    -3.96469  -1.74668   0.66449 
 H                    -4.25446   0.2123    1.51139 
 C                    -0.31375  -0.48989   1.93597 
 O                    -1.11762  -2.65161   0.40838 
 H                    -1.09219  -2.84797   1.35173 
 H                    -3.16096  -2.38649   0.27544 
 H                    -4.70534  -1.58989  -0.13364 
 H                    -4.468    -2.29302   1.47601 
 H                    -4.73953   1.31485  -2.16153 
 H                    -4.24104   2.36079  -0.8288 
 H                    -5.2006    0.89557  -0.50249 
 H                     2.27098  -3.04082  -2.9929 
 H                     1.2966   -1.54512  -2.74204 
 H                     0.90117  -3.01871  -1.85207 
 H                     3.36437  -4.09154  -1.02842 
 H                     2.14004  -3.68723   0.19125 
 H                     3.83465  -3.16148   0.40642 
 H                     4.46043  -2.31479  -2.37653 
 H                     4.74624  -1.15656  -1.0645 
 H                     3.78469  -0.68392  -2.48899 
 H                     4.77502  -1.39843   1.07892 
 H                     4.81122  -0.20126   2.38367 
 H                     4.65923   0.34066   0.7024 
 H                     2.79746  -2.60653   2.22828 
 H                     1.35548  -1.66436   2.68652 
 H                     2.90476  -1.41677   3.54213 
 H                     2.81801   0.93165   3.20135 
 H                     1.2729    0.85387   2.3091 
 H                     2.68696   1.70001   1.60685 
 O                    -0.19317  -0.39965   3.09342 
 

 GradGradGradGradGradGradGradGradGradGradGradGradGradGradGradGradGradGrad
 Berny optimization.
 Initialization pass.
                           ----------------------------
                           !    Initial Parameters    !
                           ! (Angstroms and Degrees)  !
 --------------------------                            --------------------------
 ! Name  Definition              Value          Derivative Info.                !
 --------------------------------------------------------------------------------
 ! R1    R(1,2)                  1.3398         estimate D2E/DX2                !
 ! R2    R(1,3)                  1.343          estimate D2E/DX2                !
 ! R3    R(1,18)                 2.1043         estimate D2E/DX2                !
 ! R4    R(2,4)                  1.3904         estimate D2E/DX2                !
 ! R5    R(2,7)                  1.499          estimate D2E/DX2                !
 ! R6    R(3,6)                  1.3961         estimate D2E/DX2                !
 ! R7    R(3,11)                 1.4977         estimate D2E/DX2                !
 ! R8    R(4,5)                  1.3937         estimate D2E/DX2                !
 ! R9    R(4,8)                  1.0907         estimate D2E/DX2                !
 ! R10   R(5,6)                  1.391          estimate D2E/DX2                !
 ! R11   R(5,9)                  1.0919         estimate D2E/DX2                !
 ! R12   R(6,10)                 1.0908         estimate D2E/DX2                !
 ! R13   R(7,12)                 1.4787         estimate D2E/DX2                !
 ! R14   R(7,13)                 1.104          estimate D2E/DX2                !
 ! R15   R(7,14)                 1.1027         estimate D2E/DX2                !
 ! R16   R(11,15)                1.1053         estimate D2E/DX2                !
 ! R17   R(11,16)                1.8741         estimate D2E/DX2                !
 ! R18   R(11,17)                1.0997         estimate D2E/DX2                !
 ! R19   R(12,19)                1.4844         estimate D2E/DX2                !
 ! R20   R(12,21)                1.4832         estimate D2E/DX2                !
 ! R21   R(16,18)                2.2675         estimate D2E/DX2                !
 ! R22   R(16,20)                1.9117         estimate D2E/DX2                !
 ! R23   R(16,22)                1.9124         estimate D2E/DX2                !
 ! R24   R(18,29)                1.6242         estimate D2E/DX2                !
 ! R25   R(18,36)                1.8262         estimate D2E/DX2                !
 ! R26   R(18,37)                2.1635         estimate D2E/DX2                !
 ! R27   R(19,30)                1.0997         estimate D2E/DX2                !
 ! R28   R(19,31)                1.5221         estimate D2E/DX2                !
 ! R29   R(19,32)                1.0976         estimate D2E/DX2                !
 ! R30   R(20,23)                1.5339         estimate D2E/DX2                !
 ! R31   R(20,24)                1.5321         estimate D2E/DX2                !
 ! R32   R(20,25)                1.533          estimate D2E/DX2                !
 ! R33   R(21,33)                1.0997         estimate D2E/DX2                !
 ! R34   R(21,34)                1.5143         estimate D2E/DX2                !
 ! R35   R(21,35)                1.1085         estimate D2E/DX2                !
 ! R36   R(22,26)                1.5336         estimate D2E/DX2                !
 ! R37   R(22,27)                1.5295         estimate D2E/DX2                !
 ! R38   R(22,28)                1.5328         estimate D2E/DX2                !
 ! R39   R(23,45)                1.1034         estimate D2E/DX2                !
 ! R40   R(23,46)                1.0995         estimate D2E/DX2                !
 ! R41   R(23,47)                1.0991         estimate D2E/DX2                !
 ! R42   R(24,48)                1.1032         estimate D2E/DX2                !
 ! R43   R(24,49)                1.1004         estimate D2E/DX2                !
 ! R44   R(24,50)                1.0991         estimate D2E/DX2                !
 ! R45   R(25,51)                1.1034         estimate D2E/DX2                !
 ! R46   R(25,52)                1.0976         estimate D2E/DX2                !
 ! R47   R(25,53)                1.0999         estimate D2E/DX2                !
 ! R48   R(26,60)                1.103          estimate D2E/DX2                !
 ! R49   R(26,61)                1.0998         estimate D2E/DX2                !
 ! R50   R(26,62)                1.101          estimate D2E/DX2                !
 ! R51   R(27,54)                1.0986         estimate D2E/DX2                !
 ! R52   R(27,55)                1.1034         estimate D2E/DX2                !
 ! R53   R(27,56)                1.1013         estimate D2E/DX2                !
 ! R54   R(28,57)                1.0978         estimate D2E/DX2                !
 ! R55   R(28,58)                1.0999         estimate D2E/DX2                !
 ! R56   R(28,59)                1.1033         estimate D2E/DX2                !
 ! R57   R(31,42)                1.1007         estimate D2E/DX2                !
 ! R58   R(31,43)                1.1009         estimate D2E/DX2                !
 ! R59   R(31,44)                1.1016         estimate D2E/DX2                !
 ! R60   R(34,39)                1.0985         estimate D2E/DX2                !
 ! R61   R(34,40)                1.1001         estimate D2E/DX2                !
 ! R62   R(34,41)                1.1002         estimate D2E/DX2                !
 ! R63   R(36,63)                1.1672         estimate D2E/DX2                !
 ! R64   R(37,38)                0.9639         estimate D2E/DX2                !
 ! A1    A(2,1,3)              121.5084         estimate D2E/DX2                !
 ! A2    A(2,1,18)             117.2899         estimate D2E/DX2                !
 ! A3    A(3,1,18)             120.8773         estimate D2E/DX2                !
 ! A4    A(1,2,4)              121.2347         estimate D2E/DX2                !
 ! A5    A(1,2,7)              113.7182         estimate D2E/DX2                !
 ! A6    A(4,2,7)              124.9665         estimate D2E/DX2                !
 ! A7    A(1,3,6)              119.999          estimate D2E/DX2                !
 ! A8    A(1,3,11)             116.1404         estimate D2E/DX2                !
 ! A9    A(6,3,11)             123.8314         estimate D2E/DX2                !
 ! A10   A(2,4,5)              118.3068         estimate D2E/DX2                !
 ! A11   A(2,4,8)              120.349          estimate D2E/DX2                !
 ! A12   A(5,4,8)              121.3434         estimate D2E/DX2                !
 ! A13   A(4,5,6)              119.7019         estimate D2E/DX2                !
 ! A14   A(4,5,9)              120.1883         estimate D2E/DX2                !
 ! A15   A(6,5,9)              120.1074         estimate D2E/DX2                !
 ! A16   A(3,6,5)              119.2176         estimate D2E/DX2                !
 ! A17   A(3,6,10)             119.8689         estimate D2E/DX2                !
 ! A18   A(5,6,10)             120.906          estimate D2E/DX2                !
 ! A19   A(2,7,12)             112.2838         estimate D2E/DX2                !
 ! A20   A(2,7,13)             110.9655         estimate D2E/DX2                !
 ! A21   A(2,7,14)             107.2644         estimate D2E/DX2                !
 ! A22   A(12,7,13)            111.9543         estimate D2E/DX2                !
 ! A23   A(12,7,14)            106.318          estimate D2E/DX2                !
 ! A24   A(13,7,14)            107.7246         estimate D2E/DX2                !
 ! A25   A(3,11,15)            105.7592         estimate D2E/DX2                !
 ! A26   A(3,11,16)            111.0291         estimate D2E/DX2                !
 ! A27   A(3,11,17)            112.0197         estimate D2E/DX2                !
 ! A28   A(15,11,16)           101.9776         estimate D2E/DX2                !
 ! A29   A(15,11,17)           109.5481         estimate D2E/DX2                !
 ! A30   A(16,11,17)           115.5723         estimate D2E/DX2                !
 ! A31   A(7,12,19)            111.2192         estimate D2E/DX2                !
 ! A32   A(7,12,21)            107.0187         estimate D2E/DX2                !
 ! A33   A(19,12,21)           112.6543         estimate D2E/DX2                !
 ! A34   A(11,16,18)            97.2239         estimate D2E/DX2                !
 ! A35   A(11,16,20)           102.9064         estimate D2E/DX2                !
 ! A36   A(11,16,22)           105.3962         estimate D2E/DX2                !
 ! A37   A(18,16,20)           121.5429         estimate D2E/DX2                !
 ! A38   A(18,16,22)           116.387          estimate D2E/DX2                !
 ! A39   A(20,16,22)           109.996          estimate D2E/DX2                !
 ! A40   A(1,18,16)             82.2818         estimate D2E/DX2                !
 ! A41   A(1,18,29)             94.1429         estimate D2E/DX2                !
 ! A42   A(1,18,36)             89.559          estimate D2E/DX2                !
 ! A43   A(16,18,29)            89.2569         estimate D2E/DX2                !
 ! A44   A(16,18,36)            91.2419         estimate D2E/DX2                !
 ! A45   A(16,18,37)           107.0005         estimate D2E/DX2                !
 ! A46   A(29,18,37)            88.9768         estimate D2E/DX2                !
 ! A47   A(36,18,37)            87.3695         estimate D2E/DX2                !
 ! A48   A(12,19,30)           106.4301         estimate D2E/DX2                !
 ! A49   A(12,19,31)           116.8148         estimate D2E/DX2                !
 ! A50   A(12,19,32)           106.1043         estimate D2E/DX2                !
 ! A51   A(30,19,31)           112.635          estimate D2E/DX2                !
 ! A52   A(30,19,32)           103.9694         estimate D2E/DX2                !
 ! A53   A(31,19,32)           109.9274         estimate D2E/DX2                !
 ! A54   A(16,20,23)           107.3068         estimate D2E/DX2                !
 ! A55   A(16,20,24)           110.6993         estimate D2E/DX2                !
 ! A56   A(16,20,25)           112.5074         estimate D2E/DX2                !
 ! A57   A(23,20,24)           107.8627         estimate D2E/DX2                !
 ! A58   A(23,20,25)           108.2605         estimate D2E/DX2                !
 ! A59   A(24,20,25)           110.0285         estimate D2E/DX2                !
 ! A60   A(12,21,33)           105.6954         estimate D2E/DX2                !
 ! A61   A(12,21,34)           114.8738         estimate D2E/DX2                !
 ! A62   A(12,21,35)           109.3796         estimate D2E/DX2                !
 ! A63   A(33,21,34)           109.7692         estimate D2E/DX2                !
 ! A64   A(33,21,35)           107.3953         estimate D2E/DX2                !
 ! A65   A(34,21,35)           109.4306         estimate D2E/DX2                !
 ! A66   A(16,22,26)           107.0672         estimate D2E/DX2                !
 ! A67   A(16,22,27)           114.4492         estimate D2E/DX2                !
 ! A68   A(16,22,28)           108.6793         estimate D2E/DX2                !
 ! A69   A(26,22,27)           108.2991         estimate D2E/DX2                !
 ! A70   A(26,22,28)           107.7646         estimate D2E/DX2                !
 ! A71   A(27,22,28)           110.3349         estimate D2E/DX2                !
 ! A72   A(20,23,45)           108.5389         estimate D2E/DX2                !
 ! A73   A(20,23,46)           112.3793         estimate D2E/DX2                !
 ! A74   A(20,23,47)           111.0128         estimate D2E/DX2                !
 ! A75   A(45,23,46)           109.8286         estimate D2E/DX2                !
 ! A76   A(45,23,47)           108.0833         estimate D2E/DX2                !
 ! A77   A(46,23,47)           106.9096         estimate D2E/DX2                !
 ! A78   A(20,24,48)           108.4277         estimate D2E/DX2                !
 ! A79   A(20,24,49)           111.7177         estimate D2E/DX2                !
 ! A80   A(20,24,50)           113.182          estimate D2E/DX2                !
 ! A81   A(48,24,49)           107.2971         estimate D2E/DX2                !
 ! A82   A(48,24,50)           107.2632         estimate D2E/DX2                !
 ! A83   A(49,24,50)           108.6933         estimate D2E/DX2                !
 ! A84   A(20,25,51)           108.6332         estimate D2E/DX2                !
 ! A85   A(20,25,52)           113.5734         estimate D2E/DX2                !
 ! A86   A(20,25,53)           111.755          estimate D2E/DX2                !
 ! A87   A(51,25,52)           107.3517         estimate D2E/DX2                !
 ! A88   A(51,25,53)           106.8063         estimate D2E/DX2                !
 ! A89   A(52,25,53)           108.4149         estimate D2E/DX2                !
 ! A90   A(22,26,60)           108.6308         estimate D2E/DX2                !
 ! A91   A(22,26,61)           111.0474         estimate D2E/DX2                !
 ! A92   A(22,26,62)           112.436          estimate D2E/DX2                !
 ! A93   A(60,26,61)           108.3401         estimate D2E/DX2                !
 ! A94   A(60,26,62)           107.2743         estimate D2E/DX2                !
 ! A95   A(61,26,62)           108.9618         estimate D2E/DX2                !
 ! A96   A(22,27,54)           112.8824         estimate D2E/DX2                !
 ! A97   A(22,27,55)           108.8598         estimate D2E/DX2                !
 ! A98   A(22,27,56)           112.3575         estimate D2E/DX2                !
 ! A99   A(54,27,55)           107.0904         estimate D2E/DX2                !
 ! A100  A(54,27,56)           108.3019         estimate D2E/DX2                !
 ! A101  A(55,27,56)           107.0579         estimate D2E/DX2                !
 ! A102  A(22,28,57)           112.7666         estimate D2E/DX2                !
 ! A103  A(22,28,58)           110.5319         estimate D2E/DX2                !
 ! A104  A(22,28,59)           109.0414         estimate D2E/DX2                !
 ! A105  A(57,28,58)           108.3973         estimate D2E/DX2                !
 ! A106  A(57,28,59)           107.5593         estimate D2E/DX2                !
 ! A107  A(58,28,59)           108.4145         estimate D2E/DX2                !
 ! A108  A(19,31,42)           108.4034         estimate D2E/DX2                !
 ! A109  A(19,31,43)           113.0826         estimate D2E/DX2                !
 ! A110  A(19,31,44)           113.1778         estimate D2E/DX2                !
 ! A111  A(42,31,43)           106.6701         estimate D2E/DX2                !
 ! A112  A(42,31,44)           107.1675         estimate D2E/DX2                !
 ! A113  A(43,31,44)           107.9826         estimate D2E/DX2                !
 ! A114  A(21,34,39)           111.2601         estimate D2E/DX2                !
 ! A115  A(21,34,40)           112.7116         estimate D2E/DX2                !
 ! A116  A(21,34,41)           108.9052         estimate D2E/DX2                !
 ! A117  A(39,34,40)           108.5823         estimate D2E/DX2                !
 ! A118  A(39,34,41)           107.8623         estimate D2E/DX2                !
 ! A119  A(40,34,41)           107.3337         estimate D2E/DX2                !
 ! A120  A(18,37,38)           108.2616         estimate D2E/DX2                !
 ! A121  L(1,18,37,16,-1)      189.2823         estimate D2E/DX2                !
 ! A122  L(29,18,36,1,-1)      183.7018         estimate D2E/DX2                !
 ! A123  L(18,36,63,4,-1)      180.262          estimate D2E/DX2                !
 ! A124  L(1,18,37,16,-2)      177.0152         estimate D2E/DX2                !
 ! A125  L(29,18,36,1,-2)      180.0013         estimate D2E/DX2                !
 ! A126  L(18,36,63,4,-2)      183.1903         estimate D2E/DX2                !
 ! D1    D(3,1,2,4)             -0.7937         estimate D2E/DX2                !
 ! D2    D(3,1,2,7)           -177.6863         estimate D2E/DX2                !
 ! D3    D(18,1,2,4)          -174.3072         estimate D2E/DX2                !
 ! D4    D(18,1,2,7)             8.8002         estimate D2E/DX2                !
 ! D5    D(2,1,3,6)              1.9824         estimate D2E/DX2                !
 ! D6    D(2,1,3,11)          -176.1299         estimate D2E/DX2                !
 ! D7    D(18,1,3,6)           175.265          estimate D2E/DX2                !
 ! D8    D(18,1,3,11)           -2.8474         estimate D2E/DX2                !
 ! D9    D(2,1,18,16)         -164.438          estimate D2E/DX2                !
 ! D10   D(2,1,18,29)          106.8763         estimate D2E/DX2                !
 ! D11   D(2,1,18,36)          -73.125          estimate D2E/DX2                !
 ! D12   D(3,1,18,16)           22.0051         estimate D2E/DX2                !
 ! D13   D(3,1,18,29)          -66.6805         estimate D2E/DX2                !
 ! D14   D(3,1,18,36)          113.3182         estimate D2E/DX2                !
 ! D15   D(2,1,37,38)          -76.0452         estimate D2E/DX2                !
 ! D16   D(3,1,37,38)          110.6197         estimate D2E/DX2                !
 ! D17   D(1,2,4,5)             -0.7178         estimate D2E/DX2                !
 ! D18   D(1,2,4,8)            179.6062         estimate D2E/DX2                !
 ! D19   D(7,2,4,5)            175.8102         estimate D2E/DX2                !
 ! D20   D(7,2,4,8)             -3.8658         estimate D2E/DX2                !
 ! D21   D(1,2,7,12)           -40.2164         estimate D2E/DX2                !
 ! D22   D(1,2,7,13)          -166.3529         estimate D2E/DX2                !
 ! D23   D(1,2,7,14)            76.2282         estimate D2E/DX2                !
 ! D24   D(4,2,7,12)           143.026          estimate D2E/DX2                !
 ! D25   D(4,2,7,13)            16.8895         estimate D2E/DX2                !
 ! D26   D(4,2,7,14)          -100.5294         estimate D2E/DX2                !
 ! D27   D(1,3,6,5)             -1.6379         estimate D2E/DX2                !
 ! D28   D(1,3,6,10)           179.3506         estimate D2E/DX2                !
 ! D29   D(11,3,6,5)           176.322          estimate D2E/DX2                !
 ! D30   D(11,3,6,10)           -2.6895         estimate D2E/DX2                !
 ! D31   D(1,3,11,15)           85.8642         estimate D2E/DX2                !
 ! D32   D(1,3,11,16)          -23.983          estimate D2E/DX2                !
 ! D33   D(1,3,11,17)         -154.8509         estimate D2E/DX2                !
 ! D34   D(6,3,11,15)          -92.1678         estimate D2E/DX2                !
 ! D35   D(6,3,11,16)          157.9851         estimate D2E/DX2                !
 ! D36   D(6,3,11,17)           27.1171         estimate D2E/DX2                !
 ! D37   D(2,4,5,6)              1.0044         estimate D2E/DX2                !
 ! D38   D(2,4,5,9)           -179.5576         estimate D2E/DX2                !
 ! D39   D(8,4,5,6)           -179.3229         estimate D2E/DX2                !
 ! D40   D(8,4,5,9)              0.115          estimate D2E/DX2                !
 ! D41   D(4,5,6,3)              0.1423         estimate D2E/DX2                !
 ! D42   D(4,5,6,10)           179.1432         estimate D2E/DX2                !
 ! D43   D(9,5,6,3)           -179.2962         estimate D2E/DX2                !
 ! D44   D(9,5,6,10)            -0.2952         estimate D2E/DX2                !
 ! D45   D(2,7,12,19)          -71.2579         estimate D2E/DX2                !
 ! D46   D(2,7,12,21)          165.3101         estimate D2E/DX2                !
 ! D47   D(13,7,12,19)          54.341          estimate D2E/DX2                !
 ! D48   D(13,7,12,21)         -69.091          estimate D2E/DX2                !
 ! D49   D(14,7,12,19)         171.7305         estimate D2E/DX2                !
 ! D50   D(14,7,12,21)          48.2985         estimate D2E/DX2                !
 ! D51   D(3,11,16,18)          34.964          estimate D2E/DX2                !
 ! D52   D(3,11,16,20)         159.7167         estimate D2E/DX2                !
 ! D53   D(3,11,16,22)         -85.0074         estimate D2E/DX2                !
 ! D54   D(15,11,16,18)        -77.3083         estimate D2E/DX2                !
 ! D55   D(15,11,16,20)         47.4443         estimate D2E/DX2                !
 ! D56   D(15,11,16,22)        162.7202         estimate D2E/DX2                !
 ! D57   D(17,11,16,18)        163.96           estimate D2E/DX2                !
 ! D58   D(17,11,16,20)        -71.2873         estimate D2E/DX2                !
 ! D59   D(17,11,16,22)         43.9886         estimate D2E/DX2                !
 ! D60   D(7,12,19,30)          68.354          estimate D2E/DX2                !
 ! D61   D(7,12,19,31)         -58.4187         estimate D2E/DX2                !
 ! D62   D(7,12,19,32)         178.6641         estimate D2E/DX2                !
 ! D63   D(21,12,19,30)       -171.4958         estimate D2E/DX2                !
 ! D64   D(21,12,19,31)         61.7315         estimate D2E/DX2                !
 ! D65   D(21,12,19,32)        -61.1857         estimate D2E/DX2                !
 ! D66   D(7,12,21,33)         -64.7595         estimate D2E/DX2                !
 ! D67   D(7,12,21,34)         174.0734         estimate D2E/DX2                !
 ! D68   D(7,12,21,35)          50.5836         estimate D2E/DX2                !
 ! D69   D(19,12,21,33)        172.699          estimate D2E/DX2                !
 ! D70   D(19,12,21,34)         51.5319         estimate D2E/DX2                !
 ! D71   D(19,12,21,35)        -71.9579         estimate D2E/DX2                !
 ! D72   D(11,16,18,1)         -26.8724         estimate D2E/DX2                !
 ! D73   D(11,16,18,29)         67.4097         estimate D2E/DX2                !
 ! D74   D(11,16,18,36)       -116.2589         estimate D2E/DX2                !
 ! D75   D(11,16,18,37)        156.1124         estimate D2E/DX2                !
 ! D76   D(20,16,18,1)        -136.8702         estimate D2E/DX2                !
 ! D77   D(20,16,18,29)        -42.5881         estimate D2E/DX2                !
 ! D78   D(20,16,18,36)        133.7433         estimate D2E/DX2                !
 ! D79   D(20,16,18,37)         46.1146         estimate D2E/DX2                !
 ! D80   D(22,16,18,1)          84.3277         estimate D2E/DX2                !
 ! D81   D(22,16,18,29)        178.6098         estimate D2E/DX2                !
 ! D82   D(22,16,18,36)         -5.0588         estimate D2E/DX2                !
 ! D83   D(22,16,18,37)        -92.6875         estimate D2E/DX2                !
 ! D84   D(11,16,20,23)        -81.0526         estimate D2E/DX2                !
 ! D85   D(11,16,20,24)        161.4834         estimate D2E/DX2                !
 ! D86   D(11,16,20,25)         37.9187         estimate D2E/DX2                !
 ! D87   D(18,16,20,23)         25.927          estimate D2E/DX2                !
 ! D88   D(18,16,20,24)        -91.5371         estimate D2E/DX2                !
 ! D89   D(18,16,20,25)        144.8983         estimate D2E/DX2                !
 ! D90   D(22,16,20,23)        167.0324         estimate D2E/DX2                !
 ! D91   D(22,16,20,24)         49.5684         estimate D2E/DX2                !
 ! D92   D(22,16,20,25)        -73.9963         estimate D2E/DX2                !
 ! D93   D(11,16,22,26)         52.1022         estimate D2E/DX2                !
 ! D94   D(11,16,22,27)        -67.923          estimate D2E/DX2                !
 ! D95   D(11,16,22,28)        168.251          estimate D2E/DX2                !
 ! D96   D(18,16,22,26)        -54.2903         estimate D2E/DX2                !
 ! D97   D(18,16,22,27)       -174.3155         estimate D2E/DX2                !
 ! D98   D(18,16,22,28)         61.8585         estimate D2E/DX2                !
 ! D99   D(20,16,22,26)        162.3904         estimate D2E/DX2                !
 ! D100  D(20,16,22,27)         42.3652         estimate D2E/DX2                !
 ! D101  D(20,16,22,28)        -81.4609         estimate D2E/DX2                !
 ! D102  D(16,18,37,38)         86.2131         estimate D2E/DX2                !
 ! D103  D(29,18,37,38)        175.123          estimate D2E/DX2                !
 ! D104  D(36,18,37,38)         -4.282          estimate D2E/DX2                !
 ! D105  D(12,19,31,42)       -176.347          estimate D2E/DX2                !
 ! D106  D(12,19,31,43)         65.5907         estimate D2E/DX2                !
 ! D107  D(12,19,31,44)        -57.6067         estimate D2E/DX2                !
 ! D108  D(30,19,31,42)         60.0016         estimate D2E/DX2                !
 ! D109  D(30,19,31,43)        -58.0606         estimate D2E/DX2                !
 ! D110  D(30,19,31,44)        178.7419         estimate D2E/DX2                !
 ! D111  D(32,19,31,42)        -55.4263         estimate D2E/DX2                !
 ! D112  D(32,19,31,43)       -173.4886         estimate D2E/DX2                !
 ! D113  D(32,19,31,44)         63.314          estimate D2E/DX2                !
 ! D114  D(16,20,23,45)        170.3077         estimate D2E/DX2                !
 ! D115  D(16,20,23,46)         48.6399         estimate D2E/DX2                !
 ! D116  D(16,20,23,47)        -71.0379         estimate D2E/DX2                !
 ! D117  D(24,20,23,45)        -70.3915         estimate D2E/DX2                !
 ! D118  D(24,20,23,46)        167.9407         estimate D2E/DX2                !
 ! D119  D(24,20,23,47)         48.2629         estimate D2E/DX2                !
 ! D120  D(25,20,23,45)         48.6374         estimate D2E/DX2                !
 ! D121  D(25,20,23,46)        -73.0304         estimate D2E/DX2                !
 ! D122  D(25,20,23,47)        167.2918         estimate D2E/DX2                !
 ! D123  D(16,20,24,48)        170.2624         estimate D2E/DX2                !
 ! D124  D(16,20,24,49)         52.2246         estimate D2E/DX2                !
 ! D125  D(16,20,24,50)        -70.8588         estimate D2E/DX2                !
 ! D126  D(23,20,24,48)         53.1399         estimate D2E/DX2                !
 ! D127  D(23,20,24,49)        -64.898          estimate D2E/DX2                !
 ! D128  D(23,20,24,50)        172.0187         estimate D2E/DX2                !
 ! D129  D(25,20,24,48)        -64.7568         estimate D2E/DX2                !
 ! D130  D(25,20,24,49)        177.2054         estimate D2E/DX2                !
 ! D131  D(25,20,24,50)         54.122          estimate D2E/DX2                !
 ! D132  D(16,20,25,51)        178.1611         estimate D2E/DX2                !
 ! D133  D(16,20,25,52)         58.7867         estimate D2E/DX2                !
 ! D134  D(16,20,25,53)        -64.2524         estimate D2E/DX2                !
 ! D135  D(23,20,25,51)        -63.4266         estimate D2E/DX2                !
 ! D136  D(23,20,25,52)        177.1991         estimate D2E/DX2                !
 ! D137  D(23,20,25,53)         54.1599         estimate D2E/DX2                !
 ! D138  D(24,20,25,51)         54.2238         estimate D2E/DX2                !
 ! D139  D(24,20,25,52)        -65.1506         estimate D2E/DX2                !
 ! D140  D(24,20,25,53)        171.8102         estimate D2E/DX2                !
 ! D141  D(12,21,34,39)         51.2911         estimate D2E/DX2                !
 ! D142  D(12,21,34,40)        -70.9531         estimate D2E/DX2                !
 ! D143  D(12,21,34,41)        170.0515         estimate D2E/DX2                !
 ! D144  D(33,21,34,39)        -67.6228         estimate D2E/DX2                !
 ! D145  D(33,21,34,40)        170.133          estimate D2E/DX2                !
 ! D146  D(33,21,34,41)         51.1376         estimate D2E/DX2                !
 ! D147  D(35,21,34,39)        174.7537         estimate D2E/DX2                !
 ! D148  D(35,21,34,40)         52.5094         estimate D2E/DX2                !
 ! D149  D(35,21,34,41)        -66.486          estimate D2E/DX2                !
 ! D150  D(16,22,26,60)        172.8815         estimate D2E/DX2                !
 ! D151  D(16,22,26,61)         53.8343         estimate D2E/DX2                !
 ! D152  D(16,22,26,62)        -68.5483         estimate D2E/DX2                !
 ! D153  D(27,22,26,60)        -63.2324         estimate D2E/DX2                !
 ! D154  D(27,22,26,61)        177.7204         estimate D2E/DX2                !
 ! D155  D(27,22,26,62)         55.3378         estimate D2E/DX2                !
 ! D156  D(28,22,26,60)         56.1275         estimate D2E/DX2                !
 ! D157  D(28,22,26,61)        -62.9197         estimate D2E/DX2                !
 ! D158  D(28,22,26,62)        174.6977         estimate D2E/DX2                !
 ! D159  D(16,22,27,54)        -66.9412         estimate D2E/DX2                !
 ! D160  D(16,22,27,55)        174.2917         estimate D2E/DX2                !
 ! D161  D(16,22,27,56)         55.8885         estimate D2E/DX2                !
 ! D162  D(26,22,27,54)        173.7228         estimate D2E/DX2                !
 ! D163  D(26,22,27,55)         54.9557         estimate D2E/DX2                !
 ! D164  D(26,22,27,56)        -63.4475         estimate D2E/DX2                !
 ! D165  D(28,22,27,54)         55.9947         estimate D2E/DX2                !
 ! D166  D(28,22,27,55)        -62.7724         estimate D2E/DX2                !
 ! D167  D(28,22,27,56)        178.8244         estimate D2E/DX2                !
 ! D168  D(16,22,28,57)         67.8599         estimate D2E/DX2                !
 ! D169  D(16,22,28,58)        -53.6512         estimate D2E/DX2                !
 ! D170  D(16,22,28,59)       -172.7359         estimate D2E/DX2                !
 ! D171  D(26,22,28,57)       -176.4414         estimate D2E/DX2                !
 ! D172  D(26,22,28,58)         62.0476         estimate D2E/DX2                !
 ! D173  D(26,22,28,59)        -57.0371         estimate D2E/DX2                !
 ! D174  D(27,22,28,57)        -58.3845         estimate D2E/DX2                !
 ! D175  D(27,22,28,58)       -179.8956         estimate D2E/DX2                !
 ! D176  D(27,22,28,59)         61.0197         estimate D2E/DX2                !
 --------------------------------------------------------------------------------
 Trust Radius=3.00D-01 FncErr=1.00D-07 GrdErr=1.00D-06 EigMax=2.50D+02 EigMin=1.00D-04
 Number of steps in this run=    376 maximum allowed number of steps=    378.
 GradGradGradGradGradGradGradGradGradGradGradGradGradGradGradGradGradGrad

 Stoichiometry    C20H37N2O2PRu
 Framework group  C1[X(C20H37N2O2PRu)]
 Deg. of freedom   183
 Full point group                 C1      NOp   1
 Largest Abelian subgroup         C1      NOp   1
 Largest concise Abelian subgroup C1      NOp   1
                         Standard orientation:                         
 ---------------------------------------------------------------------
 Center     Atomic      Atomic             Coordinates (Angstroms)
 Number     Number       Type             X           Y           Z
 ---------------------------------------------------------------------
      1          7           0       -0.742228    1.401303   -0.176290
      2          6           0       -1.959610    1.832601    0.180103
      3          6           0        0.184348    2.241053   -0.666100
      4          6           0       -2.309385    3.173998    0.072462
      5          6           0       -1.353942    4.069947   -0.403694
      6          6           0       -0.096912    3.604208   -0.775054
      7          6           0       -2.834935    0.760011    0.754851
      8          1           0       -3.306724    3.508292    0.360771
      9          1           0       -1.593365    5.131456   -0.493785
     10          1           0        0.660951    4.285909   -1.163249
     11          6           0        1.471749    1.617208   -1.109511
     12          7           0       -2.696244   -0.523295    0.033526
     13          1           0       -3.886153    1.093243    0.805946
     14          1           0       -2.491066    0.574570    1.785970
     15          1           0        1.304868    1.293956   -2.153186
     16         15           0        1.762655   -0.016341   -0.238193
     17          1           0        2.308730    2.329602   -1.074329
     18         44           0       -0.404590   -0.675363   -0.136867
     19          6           0       -3.313736   -0.451414   -1.314401
     20          6           0        3.021603   -0.891160   -1.380220
     21          6           0       -3.309000   -1.569725    0.887537
     22          6           0        2.592152    0.435779    1.424556
     23          6           0        2.231668   -1.512208   -2.539115
     24          6           0        3.732048   -2.025431   -0.634637
     25          6           0        4.053638    0.078359   -1.967496
     26          6           0        1.708699    1.494989    2.094940
     27          6           0        4.006289    1.003359    1.292821
     28          6           0        2.598034   -0.805515    2.323744
     29          1           0       -0.412289   -0.826216   -1.754045
     30          1           0       -2.691435    0.236181   -1.905330
     31          6           0       -4.793555   -0.100104   -1.373898
     32          1           0       -3.142634   -1.430394   -1.780269
     33          1           0       -2.688157   -1.615107    1.794031
     34          6           0       -3.390503   -2.942427    0.253295
     35          1           0       -4.323017   -1.245350    1.196246
     36          6           0       -0.376903   -0.621970    1.688300
     37          8           0       -0.402794   -2.832718    0.025563
     38          1           0       -0.320387   -3.065396    0.957327
     39          1           0       -2.416591   -3.254326   -0.147846
     40          1           0       -4.135092   -2.993361   -0.554882
     41          1           0       -3.688931   -3.672385    1.020416
     42          1           0       -5.120516   -0.149554   -2.423765
     43          1           0       -5.009136    0.921085   -1.023772
     44          1           0       -5.427787   -0.796459   -0.802687
     45          1           0        2.946956   -1.869891   -3.299333
     46          1           0        1.527880   -0.800837   -2.994682
     47          1           0        1.639670   -2.372415   -2.196231
     48          1           0        4.313406   -2.612765   -1.365516
     49          1           0        3.015283   -2.711893   -0.159243
     50          1           0        4.436059   -1.666670    0.129409
     51          1           0        4.764505   -0.495639   -2.586121
     52          1           0        4.638098    0.611247   -1.206473
     53          1           0        3.584625    0.821581   -2.628827
     54          1           0        4.729901    0.265222    0.920830
     55          1           0        4.355242    1.326239    2.288592
     56          1           0        4.043819    1.886161    0.635428
     57          1           0        3.259668   -1.597751    1.949920
     58          1           0        1.582724   -1.217498    2.419220
     59          1           0        2.954442   -0.520622    3.328279
     60          1           0        2.092354    1.681379    3.112112
     61          1           0        0.668234    1.147912    2.175725
     62          1           0        1.724543    2.456223    1.558305
     63          8           0       -0.301921   -0.566036    2.851753
 ---------------------------------------------------------------------
 Rotational constants (GHZ):           0.2576462           0.1585030           0.1343535
 General basis read from cards:  (5D, 7F)
 ======================================================================================================
                                       Pseudopotential Parameters
 ======================================================================================================
  Center     Atomic      Valence      Angular      Power
  Number     Number     Electrons     Momentum     of R      Exponent        Coefficient   SO-Coeffient
 ======================================================================================================
    1          7
                                   No pseudopotential on this center.
    2          6
                                   No pseudopotential on this center.
    3          6
                                   No pseudopotential on this center.
    4          6
                                   No pseudopotential on this center.
    5          6
                                   No pseudopotential on this center.
    6          6
                                   No pseudopotential on this center.
    7          6
                                   No pseudopotential on this center.
    8          1
                                   No pseudopotential on this center.
    9          1
                                   No pseudopotential on this center.
   10          1
                                   No pseudopotential on this center.
   11          6
                                   No pseudopotential on this center.
   12          7
                                   No pseudopotential on this center.
   13          1
                                   No pseudopotential on this center.
   14          1
                                   No pseudopotential on this center.
   15          1
                                   No pseudopotential on this center.
   16         15
                                   No pseudopotential on this center.
   17          1
                                   No pseudopotential on this center.
   18         44           16
                                      G and up 
                                                     2        1.0000000        0.00000000    0.00000000
                                      S - G
                                                     2       11.1052690      209.82297100    0.00000000
                                                     2        5.4147450       30.65472600    0.00000000
                                      P - G
                                                     2        9.7712710      146.33618200    0.00000000
                                                     2        5.0739910       24.12787700    0.00000000
                                      D - G
                                                     2        7.6714230       67.51589700    0.00000000
                                                     2        4.1365650        9.87010400    0.00000000
                                      F - G
                                                     2       11.3600000      -28.34061600    0.00000000
                                                     2        5.6800000       -4.94462900    0.00000000
   19          6
                                   No pseudopotential on this center.
   20          6
                                   No pseudopotential on this center.
   21          6
                                   No pseudopotential on this center.
   22          6
                                   No pseudopotential on this center.
   23          6
                                   No pseudopotential on this center.
   24          6
                                   No pseudopotential on this center.
   25          6
                                   No pseudopotential on this center.
   26          6
                                   No pseudopotential on this center.
   27          6
                                   No pseudopotential on this center.
   28          6
                                   No pseudopotential on this center.
   29          1
                                   No pseudopotential on this center.
   30          1
                                   No pseudopotential on this center.
   31          6
                                   No pseudopotential on this center.
   32          1
                                   No pseudopotential on this center.
   33          1
                                   No pseudopotential on this center.
   34          6
                                   No pseudopotential on this center.
   35          1
                                   No pseudopotential on this center.
   36          6
                                   No pseudopotential on this center.
   37          8
                                   No pseudopotential on this center.
   38          1
                                   No pseudopotential on this center.
   39          1
                                   No pseudopotential on this center.
   40          1
                                   No pseudopotential on this center.
   41          1
                                   No pseudopotential on this center.
   42          1
                                   No pseudopotential on this center.
   43          1
                                   No pseudopotential on this center.
   44          1
                                   No pseudopotential on this center.
   45          1
                                   No pseudopotential on this center.
   46          1
                                   No pseudopotential on this center.
   47          1
                                   No pseudopotential on this center.
   48          1
                                   No pseudopotential on this center.
   49          1
                                   No pseudopotential on this center.
   50          1
                                   No pseudopotential on this center.
   51          1
                                   No pseudopotential on this center.
   52          1
                                   No pseudopotential on this center.
   53          1
                                   No pseudopotential on this center.
   54          1
                                   No pseudopotential on this center.
   55          1
                                   No pseudopotential on this center.
   56          1
                                   No pseudopotential on this center.
   57          1
                                   No pseudopotential on this center.
   58          1
                                   No pseudopotential on this center.
   59          1
                                   No pseudopotential on this center.
   60          1
                                   No pseudopotential on this center.
   61          1
                                   No pseudopotential on this center.
   62          1
                                   No pseudopotential on this center.
   63          8
                                   No pseudopotential on this center.
 ======================================================================================================
 There are   603 symmetry adapted cartesian basis functions of A   symmetry.
 There are   575 symmetry adapted basis functions of A   symmetry.
   575 basis functions,  1187 primitive gaussians,   603 cartesian basis functions
   109 alpha electrons      109 beta electrons
       nuclear repulsion energy      3251.4525909961 Hartrees.
 NAtoms=   63 NActive=   63 NUniq=   63 SFac= 1.00D+00 NAtFMM=   60 NAOKFM=T Big=T
 Integral buffers will be    131072 words long.
 Raffenetti 2 integral format.
 Two-electron integral symmetry is turned on.
 Nuclear repulsion after empirical dispersion term =     3251.3584891635 Hartrees.
 One-electron integrals computed using PRISM.
   1 Symmetry operations used in ECPInt.
 ECPInt:  NShTT=   38503 NPrTT=  265225 LenC2=   35785 LenP2D=  136130.
 LDataN:  DoStor=T MaxTD1= 6 Len=  172
 Number of processors reduced to  16 by ecpmxn.
 NBasis=   575 RedAO= T EigKep=  4.37D-04  NBF=   575
 NBsUse=   575 1.00D-06 EigRej= -1.00D+00 NBFU=   575
 Defaulting to unpruned grid for atomic number  44.
 ExpMin= 1.60D-02 ExpMax= 9.48D+04 ExpMxC= 3.24D+03 IAcc=3 IRadAn=         5 AccDes= 0.00D+00
 Harris functional with IExCor= 1009 and IRadAn=       5 diagonalized for initial guess.
 HarFok:  IExCor= 1009 AccDes= 0.00D+00 IRadAn=         5 IDoV= 1 UseB2=F ITyADJ=14
 ICtDFT=  3500011 ScaDFX=  1.000000  1.000000  1.000000  1.000000
 Defaulting to unpruned grid for atomic number  44.
 FoFCou: FMM=F IPFlag=           0 FMFlag=      100000 FMFlg1=        2001
         NFxFlg=           0 DoJE=T BraDBF=F KetDBF=T FulRan=T
         wScrn=  0.000000 ICntrl=       500 IOpCl=  0 I1Cent=   200000004 NGrid=           0
         NMat0=    1 NMatS0=      1 NMatT0=    0 NMatD0=    1 NMtDS0=    0 NMtDT0=    0
 Petite list used in FoFCou.
 Requested convergence on RMS density matrix=1.00D-08 within 128 cycles.
 Requested convergence on MAX density matrix=1.00D-06.
 Requested convergence on             energy=1.00D-06.
 No special actions if energy rises.
 Defaulting to unpruned grid for atomic number  44.
 Defaulting to unpruned grid for atomic number  44.
 Defaulting to unpruned grid for atomic number  44.
 Defaulting to unpruned grid for atomic number  44.
 Defaulting to unpruned grid for atomic number  44.
 Defaulting to unpruned grid for atomic number  44.
 Defaulting to unpruned grid for atomic number  44.
 Defaulting to unpruned grid for atomic number  44.
 Defaulting to unpruned grid for atomic number  44.
 Defaulting to unpruned grid for atomic number  44.
 Defaulting to unpruned grid for atomic number  44.
 Defaulting to unpruned grid for atomic number  44.
 Defaulting to unpruned grid for atomic number  44.
 Defaulting to unpruned grid for atomic number  44.
 Defaulting to unpruned grid for atomic number  44.
 Defaulting to unpruned grid for atomic number  44.
 Defaulting to unpruned grid for atomic number  44.
 Defaulting to unpruned grid for atomic number  44.
 Defaulting to unpruned grid for atomic number  44.
 Defaulting to unpruned grid for atomic number  44.
 EnCoef did     2 forward-backward iterations
 SCF Done:  E(RPBE1PBE) =  -1479.43889859     A.U. after   18 cycles
            NFock= 18  Conv=0.28D-08     -V/T= 2.0488

 **********************************************************************

            Population analysis using the SCF density.

 **********************************************************************

 Orbital symmetries:
       Occupied  (A) (A) (A) (A) (A) (A) (A) (A) (A) (A) (A) (A)
                 (A) (A) (A) (A) (A) (A) (A) (A) (A) (A) (A) (A)
                 (A) (A) (A) (A) (A) (A) (A) (A) (A) (A) (A) (A)
                 (A) (A) (A) (A) (A) (A) (A) (A) (A) (A) (A) (A)
                 (A) (A) (A) (A) (A) (A) (A) (A) (A) (A) (A) (A)
                 (A) (A) (A) (A) (A) (A) (A) (A) (A) (A) (A) (A)
                 (A) (A) (A) (A) (A) (A) (A) (A) (A) (A) (A) (A)
                 (A) (A) (A) (A) (A) (A) (A) (A) (A) (A) (A) (A)
                 (A) (A) (A) (A) (A) (A) (A) (A) (A) (A) (A) (A)
                 (A)
       Virtual   (A) (A) (A) (A) (A) (A) (A) (A) (A) (A) (A) (A)
                 (A) (A) (A) (A) (A) (A) (A) (A) (A) (A) (A) (A)
                 (A) (A) (A) (A) (A) (A) (A) (A) (A) (A) (A) (A)
                 (A) (A) (A) (A) (A) (A) (A) (A) (A) (A) (A) (A)
                 (A) (A) (A) (A) (A) (A) (A) (A) (A) (A) (A) (A)
                 (A) (A) (A) (A) (A) (A) (A) (A) (A) (A) (A) (A)
                 (A) (A) (A) (A) (A) (A) (A) (A) (A) (A) (A) (A)
                 (A) (A) (A) (A) (A) (A) (A) (A) (A) (A) (A) (A)
                 (A) (A) (A) (A) (A) (A) (A) (A) (A) (A) (A) (A)
                 (A) (A) (A) (A) (A) (A) (A) (A) (A) (A) (A) (A)
                 (A) (A) (A) (A) (A) (A) (A) (A) (A) (A) (A) (A)
                 (A) (A) (A) (A) (A) (A) (A) (A) (A) (A) (A) (A)
                 (A) (A) (A) (A) (A) (A) (A) (A) (A) (A) (A) (A)
                 (A) (A) (A) (A) (A) (A) (A) (A) (A) (A) (A) (A)
                 (A) (A) (A) (A) (A) (A) (A) (A) (A) (A) (A) (A)
                 (A) (A) (A) (A) (A) (A) (A) (A) (A) (A) (A) (A)
                 (A) (A) (A) (A) (A) (A) (A) (A) (A) (A) (A) (A)
                 (A) (A) (A) (A) (A) (A) (A) (A) (A) (A) (A) (A)
                 (A) (A) (A) (A) (A) (A) (A) (A) (A) (A) (A) (A)
                 (A) (A) (A) (A) (A) (A) (A) (A) (A) (A) (A) (A)
                 (A) (A) (A) (A) (A) (A) (A) (A) (A) (A) (A) (A)
                 (A) (A) (A) (A) (A) (A) (A) (A) (A) (A) (A) (A)
                 (A) (A) (A) (A) (A) (A) (A) (A) (A) (A) (A) (A)
                 (A) (A) (A) (A) (A) (A) (A) (A) (A) (A) (A) (A)
                 (A) (A) (A) (A) (A) (A) (A) (A) (A) (A) (A) (A)
                 (A) (A) (A) (A) (A) (A) (A) (A) (A) (A) (A) (A)
                 (A) (A) (A) (A) (A) (A) (A) (A) (A) (A) (A) (A)
                 (A) (A) (A) (A) (A) (A) (A) (A) (A) (A) (A) (A)
                 (A) (A) (A) (A) (A) (A) (A) (A) (A) (A) (A) (A)
                 (A) (A) (A) (A) (A) (A) (A) (A) (A) (A) (A) (A)
                 (A) (A) (A) (A) (A) (A) (A) (A) (A) (A) (A) (A)
                 (A) (A) (A) (A) (A) (A) (A) (A) (A) (A) (A) (A)
                 (A) (A) (A) (A) (A) (A) (A) (A) (A) (A) (A) (A)
                 (A) (A) (A) (A) (A) (A) (A) (A) (A) (A) (A) (A)
                 (A) (A) (A) (A) (A) (A) (A) (A) (A) (A) (A) (A)
                 (A) (A) (A) (A) (A) (A) (A) (A) (A) (A) (A) (A)
                 (A) (A) (A) (A) (A) (A) (A) (A) (A) (A) (A) (A)
                 (A) (A) (A) (A) (A) (A) (A) (A) (A) (A) (A) (A)
                 (A) (A) (A) (A) (A) (A) (A) (A) (A) (A)
 The electronic state is 1-A.
 Alpha  occ. eigenvalues --  -77.25439 -19.25062 -19.10699 -14.45231 -14.43626
 Alpha  occ. eigenvalues --  -10.30703 -10.30383 -10.30300 -10.28263 -10.27700
 Alpha  occ. eigenvalues --  -10.26885 -10.26739 -10.25866 -10.25783 -10.25707
 Alpha  occ. eigenvalues --  -10.25582 -10.25368 -10.23227 -10.23225 -10.22688
 Alpha  occ. eigenvalues --  -10.22166 -10.22045 -10.21350 -10.20609 -10.19716
 Alpha  occ. eigenvalues --   -6.63294  -4.76965  -4.76861  -4.76589  -3.01828
 Alpha  occ. eigenvalues --   -1.85491  -1.84845  -1.84259  -1.11980  -1.02097
 Alpha  occ. eigenvalues --   -0.97191  -0.87332  -0.85890  -0.85487  -0.84300
 Alpha  occ. eigenvalues --   -0.82870  -0.78340  -0.77619  -0.75157  -0.71551
 Alpha  occ. eigenvalues --   -0.71223  -0.70582  -0.69907  -0.69082  -0.67047
 Alpha  occ. eigenvalues --   -0.66912  -0.63910  -0.62841  -0.58146  -0.56460
 Alpha  occ. eigenvalues --   -0.56001  -0.54852  -0.54245  -0.52520  -0.51596
 Alpha  occ. eigenvalues --   -0.50925  -0.49547  -0.48486  -0.47888  -0.46855
 Alpha  occ. eigenvalues --   -0.46689  -0.46168  -0.45512  -0.45045  -0.44600
 Alpha  occ. eigenvalues --   -0.44442  -0.44004  -0.43659  -0.43159  -0.42854
 Alpha  occ. eigenvalues --   -0.42553  -0.41982  -0.41342  -0.40560  -0.40245
 Alpha  occ. eigenvalues --   -0.39850  -0.39094  -0.38695  -0.38382  -0.38191
 Alpha  occ. eigenvalues --   -0.37381  -0.36706  -0.36325  -0.36237  -0.35584
 Alpha  occ. eigenvalues --   -0.35284  -0.35063  -0.34446  -0.34323  -0.33969
 Alpha  occ. eigenvalues --   -0.33529  -0.33437  -0.32889  -0.32845  -0.31330
 Alpha  occ. eigenvalues --   -0.29881  -0.28372  -0.27225  -0.25628  -0.23760
 Alpha  occ. eigenvalues --   -0.22916  -0.22164  -0.19987  -0.16511
 Alpha virt. eigenvalues --   -0.04945  -0.03383   0.00372   0.00915   0.02061
 Alpha virt. eigenvalues --    0.03009   0.03694   0.04048   0.04763   0.06303
 Alpha virt. eigenvalues --    0.07151   0.07477   0.07990   0.08188   0.08944
 Alpha virt. eigenvalues --    0.09281   0.10004   0.10357   0.10463   0.10953
 Alpha virt. eigenvalues --    0.11862   0.11988   0.12116   0.12397   0.12678
 Alpha virt. eigenvalues --    0.13384   0.13561   0.13841   0.14099   0.14877
 Alpha virt. eigenvalues --    0.15405   0.15539   0.15752   0.16183   0.17242
 Alpha virt. eigenvalues --    0.17435   0.17594   0.17801   0.18485   0.18805
 Alpha virt. eigenvalues --    0.19118   0.19220   0.19894   0.19935   0.20165
 Alpha virt. eigenvalues --    0.20765   0.20837   0.21343   0.21488   0.21907
 Alpha virt. eigenvalues --    0.22132   0.22594   0.22943   0.23047   0.23507
 Alpha virt. eigenvalues --    0.23934   0.24832   0.25169   0.25852   0.25955
 Alpha virt. eigenvalues --    0.26183   0.26956   0.28058   0.29050   0.29196
 Alpha virt. eigenvalues --    0.29728   0.29847   0.30429   0.31383   0.32044
 Alpha virt. eigenvalues --    0.32632   0.33614   0.34987   0.35211   0.36887
 Alpha virt. eigenvalues --    0.37663   0.39190   0.40005   0.40906   0.41799
 Alpha virt. eigenvalues --    0.42129   0.42835   0.43752   0.44277   0.44523
 Alpha virt. eigenvalues --    0.45032   0.45464   0.46411   0.47282   0.47871
 Alpha virt. eigenvalues --    0.48538   0.48901   0.49431   0.49683   0.50154
 Alpha virt. eigenvalues --    0.51362   0.51840   0.52272   0.52942   0.53647
 Alpha virt. eigenvalues --    0.54142   0.54575   0.55363   0.55565   0.55952
 Alpha virt. eigenvalues --    0.57067   0.57940   0.58154   0.58729   0.59235
 Alpha virt. eigenvalues --    0.59687   0.59934   0.60646   0.60710   0.61178
 Alpha virt. eigenvalues --    0.61508   0.62143   0.62711   0.63074   0.63368
 Alpha virt. eigenvalues --    0.63855   0.64230   0.64376   0.64582   0.65165
 Alpha virt. eigenvalues --    0.65305   0.65700   0.66073   0.66282   0.66766
 Alpha virt. eigenvalues --    0.66896   0.67184   0.67477   0.67996   0.68418
 Alpha virt. eigenvalues --    0.68578   0.68587   0.69139   0.69665   0.69936
 Alpha virt. eigenvalues --    0.70190   0.70413   0.71228   0.71472   0.71705
 Alpha virt. eigenvalues --    0.72235   0.72323   0.72998   0.73267   0.74274
 Alpha virt. eigenvalues --    0.74788   0.74990   0.75105   0.75780   0.75963
 Alpha virt. eigenvalues --    0.76406   0.76610   0.76901   0.78300   0.78890
 Alpha virt. eigenvalues --    0.79149   0.79494   0.79833   0.80646   0.81297
 Alpha virt. eigenvalues --    0.81886   0.82653   0.83232   0.83581   0.84358
 Alpha virt. eigenvalues --    0.85020   0.85212   0.86124   0.86467   0.87144
 Alpha virt. eigenvalues --    0.87344   0.88167   0.88913   0.89521   0.90000
 Alpha virt. eigenvalues --    0.90363   0.90644   0.91649   0.92289   0.92767
 Alpha virt. eigenvalues --    0.93722   0.93939   0.95473   0.96047   0.96935
 Alpha virt. eigenvalues --    0.97340   0.98295   0.98583   0.98867   1.00243
 Alpha virt. eigenvalues --    1.00929   1.01589   1.02424   1.03169   1.03676
 Alpha virt. eigenvalues --    1.04192   1.05178   1.05546   1.06905   1.07241
 Alpha virt. eigenvalues --    1.09431   1.10474   1.11460   1.12183   1.13354
 Alpha virt. eigenvalues --    1.14187   1.14853   1.15807   1.16614   1.18028
 Alpha virt. eigenvalues --    1.18090   1.19966   1.21530   1.23054   1.23535
 Alpha virt. eigenvalues --    1.25357   1.25956   1.26448   1.27342   1.28328
 Alpha virt. eigenvalues --    1.28548   1.29765   1.30311   1.30897   1.31357
 Alpha virt. eigenvalues --    1.32833   1.33056   1.33739   1.34368   1.35150
 Alpha virt. eigenvalues --    1.35531   1.35783   1.36706   1.37903   1.38418
 Alpha virt. eigenvalues --    1.39502   1.39835   1.40220   1.41138   1.42041
 Alpha virt. eigenvalues --    1.43024   1.43080   1.43538   1.43870   1.44194
 Alpha virt. eigenvalues --    1.44418   1.45527   1.46080   1.46393   1.47773
 Alpha virt. eigenvalues --    1.47952   1.48330   1.48684   1.49226   1.49605
 Alpha virt. eigenvalues --    1.50316   1.51084   1.51599   1.52165   1.53194
 Alpha virt. eigenvalues --    1.53661   1.53949   1.54550   1.55235   1.56059
 Alpha virt. eigenvalues --    1.56719   1.57189   1.57406   1.58517   1.59410
 Alpha virt. eigenvalues --    1.59614   1.61259   1.61479   1.61985   1.62672
 Alpha virt. eigenvalues --    1.63210   1.63808   1.64054   1.64830   1.65017
 Alpha virt. eigenvalues --    1.65559   1.65965   1.66202   1.66958   1.67232
 Alpha virt. eigenvalues --    1.67654   1.68638   1.69078   1.69807   1.69835
 Alpha virt. eigenvalues --    1.70356   1.70766   1.71647   1.71733   1.72325
 Alpha virt. eigenvalues --    1.72534   1.72664   1.73363   1.73696   1.74509
 Alpha virt. eigenvalues --    1.74735   1.75172   1.75771   1.75959   1.76082
 Alpha virt. eigenvalues --    1.76622   1.77079   1.77489   1.78054   1.78109
 Alpha virt. eigenvalues --    1.78950   1.79820   1.79911   1.80507   1.80803
 Alpha virt. eigenvalues --    1.81697   1.82115   1.82765   1.83395   1.83710
 Alpha virt. eigenvalues --    1.84471   1.85414   1.85507   1.86201   1.86588
 Alpha virt. eigenvalues --    1.87068   1.87671   1.88708   1.89279   1.89612
 Alpha virt. eigenvalues --    1.90410   1.90599   1.91466   1.92094   1.92409
 Alpha virt. eigenvalues --    1.92811   1.93635   1.94832   1.95664   1.96175
 Alpha virt. eigenvalues --    1.96757   1.97646   1.98356   1.99072   1.99931
 Alpha virt. eigenvalues --    2.00089   2.00646   2.01533   2.01967   2.02655
 Alpha virt. eigenvalues --    2.03172   2.04009   2.05256   2.05449   2.05865
 Alpha virt. eigenvalues --    2.06503   2.07432   2.08133   2.08606   2.09126
 Alpha virt. eigenvalues --    2.09946   2.10506   2.10925   2.11654   2.12511
 Alpha virt. eigenvalues --    2.13581   2.13788   2.14569   2.15344   2.16194
 Alpha virt. eigenvalues --    2.18225   2.19315   2.19845   2.21088   2.21608
 Alpha virt. eigenvalues --    2.23364   2.24113   2.24771   2.25590   2.26036
 Alpha virt. eigenvalues --    2.26253   2.27020   2.27778   2.27999   2.29416
 Alpha virt. eigenvalues --    2.29701   2.31817   2.32808   2.34131   2.37657
 Alpha virt. eigenvalues --    2.38321   2.39508   2.40233   2.40714   2.41350
 Alpha virt. eigenvalues --    2.42301   2.42590   2.42739   2.43359   2.43767
 Alpha virt. eigenvalues --    2.44419   2.44523   2.46167   2.46475   2.47395
 Alpha virt. eigenvalues --    2.47425   2.48613   2.49486   2.49906   2.50150
 Alpha virt. eigenvalues --    2.50763   2.51923   2.52405   2.52613   2.53171
 Alpha virt. eigenvalues --    2.53473   2.54195   2.55365   2.55863   2.56328
 Alpha virt. eigenvalues --    2.56764   2.57555   2.57835   2.58428   2.59580
 Alpha virt. eigenvalues --    2.59690   2.60926   2.61373   2.63090   2.64606
 Alpha virt. eigenvalues --    2.66203   2.67970   2.68459   2.69347   2.70244
 Alpha virt. eigenvalues --    2.70607   2.71902   2.72287   2.73639   2.76351
 Alpha virt. eigenvalues --    2.78531   2.79523   2.80774   2.81545   2.83267
 Alpha virt. eigenvalues --    2.84708   2.85981   2.92944   2.99285   3.03140
 Alpha virt. eigenvalues --    3.07583   3.11852   3.14303   3.15821   3.49186
 Alpha virt. eigenvalues --    3.60318   3.85999  34.93528  34.95208  35.09547
 Alpha virt. eigenvalues --   45.99924
          Condensed to atoms (all electrons):
 Mulliken charges:
               1
     1  N   -0.304430
     2  C    0.065144
     3  C    0.082015
     4  C   -0.050310
     5  C    0.080552
     6  C   -0.044357
     7  C    0.098346
     8  H    0.007984
     9  H    0.021140
    10  H    0.007983
    11  C   -0.096447
    12  N   -0.376982
    13  H    0.038330
    14  H    0.106863
    15  H    0.123126
    16  P    0.226639
    17  H    0.057734
    18  Ru  -0.074653
    19  C   -0.029257
    20  C   -0.472386
    21  C   -0.001090
    22  C   -0.475165
    23  C    0.007107
    24  C   -0.013035
    25  C    0.007626
    26  C   -0.012419
    27  C    0.016741
    28  C   -0.006373
    29  H   -0.095602
    30  H    0.112667
    31  C   -0.075021
    32  H    0.108056
    33  H    0.080217
    34  C   -0.102640
    35  H    0.022587
    36  C   -0.060671
    37  O   -0.387286
    38  H    0.150228
    39  H    0.144462
    40  H    0.031684
    41  H    0.040146
    42  H    0.057124
    43  H    0.043939
    44  H    0.055562
    45  H    0.024717
    46  H    0.069381
    47  H    0.127551
    48  H    0.040022
    49  H    0.100754
    50  H    0.040316
    51  H    0.039710
    52  H    0.029583
    53  H    0.040813
    54  H    0.051495
    55  H    0.040111
    56  H    0.039334
    57  H    0.037342
    58  H    0.110546
    59  H    0.036073
    60  H    0.040785
    61  H    0.117400
    62  H    0.040697
    63  O   -0.142509
 Sum of Mulliken charges =  -0.00000
 Mulliken charges with hydrogens summed into heavy atoms:
               1
     1  N   -0.304430
     2  C    0.065144
     3  C    0.082015
     4  C   -0.042326
     5  C    0.101692
     6  C   -0.036373
     7  C    0.243540
    11  C    0.084412
    12  N   -0.376982
    16  P    0.226639
    18  Ru  -0.170255
    19  C    0.191465
    20  C   -0.472386
    21  C    0.101714
    22  C   -0.475165
    23  C    0.228757
    24  C    0.168058
    25  C    0.117731
    26  C    0.186464
    27  C    0.147680
    28  C    0.177588
    31  C    0.081605
    34  C    0.113652
    36  C   -0.060671
    37  O   -0.237058
    63  O   -0.142509
 Electronic spatial extent (au):  <R**2>=           9497.3917
 Charge=              0.0000 electrons
 Dipole moment (field-independent basis, Debye):
    X=             -0.6573    Y=              7.4755    Z=              0.0329  Tot=              7.5044
 Quadrupole moment (field-independent basis, Debye-Ang):
   XX=           -161.5936   YY=           -182.2772   ZZ=           -188.6277
   XY=             -4.5327   XZ=             -2.1862   YZ=             -5.3504
 Traceless Quadrupole moment (field-independent basis, Debye-Ang):
   XX=             15.9059   YY=             -4.7777   ZZ=            -11.1282
   XY=             -4.5327   XZ=             -2.1862   YZ=             -5.3504
 Octapole moment (field-independent basis, Debye-Ang**2):
  XXX=            -59.1117  YYY=             54.5322  ZZZ=             -9.3543  XYY=            -19.4085
  XXY=             -9.3771  XXZ=              0.2327  XZZ=             -3.7644  YZZ=            -16.9574
  YYZ=              2.6011  XYZ=             -0.5846
 Hexadecapole moment (field-independent basis, Debye-Ang**3):
 XXXX=          -7113.7160 YYYY=          -3417.5738 ZZZZ=          -2220.6309 XXXY=            -36.5817
 XXXZ=              6.0481 YYYX=            -69.3286 YYYZ=           -105.7986 ZZZX=             23.2716
 ZZZY=              9.5901 XXYY=          -1735.1457 XXZZ=          -1526.1192 YYZZ=           -961.9360
 XXYZ=             30.3001 YYXZ=            -33.0683 ZZXY=             22.1013
 N-N= 3.251358489164D+03 E-N=-9.937831691030D+03  KE= 1.410551012799D+03
   1 Symmetry operations used in ECPInt.
 ECPInt:  NShTT=   38503 NPrTT=  265225 LenC2=   35785 LenP2D=  136130.
 LDataN:  DoStor=T MaxTD1= 7 Len=  274
 Number of processors reduced to  17 by ecpmxn.
 Calling FoFJK, ICntrl=      2127 FMM=T ISym2X=0 I1Cent= 0 IOpClX= 0 NMat=1 NMatS=1 NMatT=0.
 Defaulting to unpruned grid for atomic number  44.
 Defaulting to unpruned grid for atomic number  44.
 Defaulting to unpruned grid for atomic number  44.
 Defaulting to unpruned grid for atomic number  44.
 Defaulting to unpruned grid for atomic number  44.
 Defaulting to unpruned grid for atomic number  44.
 Defaulting to unpruned grid for atomic number  44.
 Defaulting to unpruned grid for atomic number  44.
 Defaulting to unpruned grid for atomic number  44.
 Defaulting to unpruned grid for atomic number  44.
 Defaulting to unpruned grid for atomic number  44.
 Defaulting to unpruned grid for atomic number  44.
 Defaulting to unpruned grid for atomic number  44.
 Defaulting to unpruned grid for atomic number  44.
 Defaulting to unpruned grid for atomic number  44.
 Defaulting to unpruned grid for atomic number  44.
 Defaulting to unpruned grid for atomic number  44.
 Defaulting to unpruned grid for atomic number  44.
 Defaulting to unpruned grid for atomic number  44.
 Defaulting to unpruned grid for atomic number  44.
 ***** Axes restored to original set *****
 -------------------------------------------------------------------
 Center     Atomic                   Forces (Hartrees/Bohr)
 Number     Number              X              Y              Z
 -------------------------------------------------------------------
      1        7          -0.001638838   -0.017105610   -0.019070068
      2        6          -0.004014987    0.002162883    0.003001547
      3        6           0.005117599    0.004466941    0.000383005
      4        6           0.001061142   -0.001837048    0.000832939
      5        6           0.000082741    0.001599798   -0.000482954
      6        6           0.000301131   -0.001214489    0.001232891
      7        6          -0.000319243   -0.000379445   -0.003678749
      8        1          -0.000013001   -0.000468656    0.000057450
      9        1          -0.000044374   -0.000268667   -0.000028750
     10        1          -0.000119963   -0.000192118    0.000059258
     11        6          -0.001424116    0.001283820    0.000263035
     12        7          -0.004078213    0.000515399   -0.003852783
     13        1           0.000612045   -0.000379598    0.000408514
     14        1          -0.001319067    0.001541236    0.000052826
     15        1           0.003361307   -0.000264973   -0.000380350
     16       15          -0.002913524   -0.011434242   -0.006308477
     17        1          -0.000223527    0.000160331   -0.001065919
     18       44          -0.007628843    0.006250054    0.034797996
     19        6           0.000831711   -0.004534987    0.000318385
     20        6           0.001794425    0.001455606   -0.001293935
     21        6          -0.002882696   -0.002706412   -0.002297177
     22        6           0.000475758    0.000696507   -0.000870043
     23        6          -0.001384246   -0.001408737    0.003238459
     24        6          -0.001132373    0.000570758    0.000280038
     25        6           0.000147438   -0.000601840    0.000333072
     26        6           0.000011432    0.003258830   -0.003338921
     27        6          -0.000420589   -0.000065676   -0.000712972
     28        6          -0.000184900   -0.004297012   -0.002786772
     29        1           0.000578089   -0.000430041   -0.016645429
     30        1          -0.001572056    0.004048443    0.000719101
     31        6           0.000929234    0.001536732   -0.001701651
     32        1           0.000534795   -0.000488084    0.001075655
     33        1          -0.001096712    0.000124139    0.000486864
     34        6          -0.003238985   -0.001257612   -0.002971368
     35        1           0.001263946    0.001317706    0.000964796
     36        6          -0.002492386   -0.003998306    0.026164270
     37        8           0.009949526    0.010132849   -0.014575535
     38        1           0.002595517    0.001660188    0.000534487
     39        1           0.005627977    0.000966193    0.001261523
     40        1          -0.002115113    0.001847588    0.000812789
     41        1          -0.001019015    0.000966619    0.000721305
     42        1          -0.000242592    0.000019904    0.000132089
     43        1           0.000129922    0.000057550    0.000125499
     44        1           0.001488287   -0.000780738   -0.000107728
     45        1           0.000424818    0.001538959   -0.000618412
     46        1           0.001118173   -0.001270807   -0.001763779
     47        1          -0.001530523    0.002631689    0.001309701
     48        1           0.000068243    0.000323728    0.000029221
     49        1          -0.000762249    0.001106651   -0.000196796
     50        1           0.000126915    0.000445439   -0.000391877
     51        1           0.000020019    0.000264308    0.000100461
     52        1          -0.000185548    0.000140432    0.000042462
     53        1           0.000081019    0.000364214   -0.000059722
     54        1          -0.000485911    0.000034931   -0.000057842
     55        1          -0.000474742   -0.000007326   -0.000140560
     56        1          -0.000231201    0.000105098   -0.000039810
     57        1           0.000753343    0.000578113   -0.000546343
     58        1           0.011641912   -0.005329124    0.001837240
     59        1          -0.000748685    0.000492767   -0.000186689
     60        1          -0.001083771   -0.000158336   -0.000105452
     61        1           0.011475377    0.006683385    0.000804540
     62        1           0.000814034   -0.000321632   -0.000483296
     63        8          -0.016395885   -0.000148273    0.004378745
 -------------------------------------------------------------------
 Cartesian Forces:  Max     0.034797996 RMS     0.004926109

 GradGradGradGradGradGradGradGradGradGradGradGradGradGradGradGradGradGrad
 Berny optimization.
 FormGI is forming the generalized inverse of G from B-inverse, IUseBI=4.
 Internal  Forces:  Max     0.034664607 RMS     0.006376474
 Search for a local minimum.
 Step number   1 out of a maximum of  376
 All quantities printed in internal units (Hartrees-Bohrs-Radians)
 Mixed Optimization -- RFO/linear search
 Second derivative matrix not updated -- first step.
 ITU=  0
     Eigenvalues ---    0.00230   0.00230   0.00230   0.00318   0.00322
     Eigenvalues ---    0.00330   0.00332   0.00342   0.00376   0.00451
     Eigenvalues ---    0.00473   0.00576   0.00576   0.00591   0.00651
     Eigenvalues ---    0.00779   0.01073   0.01264   0.01679   0.01795
     Eigenvalues ---    0.02170   0.02186   0.02189   0.02199   0.02322
     Eigenvalues ---    0.02480   0.02708   0.02798   0.03175   0.03607
     Eigenvalues ---    0.03981   0.04119   0.04153   0.04204   0.04771
     Eigenvalues ---    0.04771   0.04900   0.04910   0.05005   0.05123
     Eigenvalues ---    0.05141   0.05161   0.05180   0.05196   0.05202
     Eigenvalues ---    0.05228   0.05327   0.05352   0.05388   0.05439
     Eigenvalues ---    0.05456   0.05456   0.05705   0.05715   0.05715
     Eigenvalues ---    0.05720   0.05754   0.05754   0.05782   0.05873
     Eigenvalues ---    0.05990   0.06080   0.06637   0.07118   0.07863
     Eigenvalues ---    0.08198   0.09380   0.09767   0.09935   0.10249
     Eigenvalues ---    0.11006   0.11893   0.12033   0.13074   0.13293
     Eigenvalues ---    0.13331   0.13376   0.14115   0.14245   0.14483
     Eigenvalues ---    0.14550   0.14666   0.15514   0.15880   0.15997
     Eigenvalues ---    0.15999   0.16000   0.16000   0.16000   0.16000
     Eigenvalues ---    0.16000   0.16000   0.16000   0.16000   0.16000
     Eigenvalues ---    0.16000   0.16000   0.16000   0.16000   0.16000
     Eigenvalues ---    0.16000   0.16000   0.16000   0.16000   0.16000
     Eigenvalues ---    0.16000   0.16000   0.16000   0.16000   0.16000
     Eigenvalues ---    0.16000   0.16059   0.16330   0.17187   0.18943
     Eigenvalues ---    0.18979   0.19037   0.20966   0.21904   0.22014
     Eigenvalues ---    0.22020   0.22104   0.23469   0.23933   0.24752
     Eigenvalues ---    0.24961   0.29070   0.29096   0.29152   0.29169
     Eigenvalues ---    0.29234   0.29472   0.29930   0.30164   0.30919
     Eigenvalues ---    0.31713   0.32483   0.32760   0.33107   0.33249
     Eigenvalues ---    0.33305   0.33308   0.33308   0.33319   0.33327
     Eigenvalues ---    0.33354   0.33391   0.33510   0.33536   0.33572
     Eigenvalues ---    0.33587   0.33603   0.33633   0.33663   0.33674
     Eigenvalues ---    0.33697   0.33697   0.33704   0.33718   0.33720
     Eigenvalues ---    0.33720   0.33737   0.33778   0.33784   0.33842
     Eigenvalues ---    0.33849   0.33928   0.33949   0.33950   0.34073
     Eigenvalues ---    0.34208   0.34594   0.34724   0.34724   0.34735
     Eigenvalues ---    0.42559   0.43663   0.46623   0.47063   0.51106
     Eigenvalues ---    0.54642   0.55852   1.23191
 RFO step:  Lambda=-8.48588576D-02 EMin= 2.30000000D-03
[...]
 06,0.00007165,-0.00020133,-0.00003018,-0.00012784,0.00007128,-0.000011
 69,0.00002954,0.00007423,0.00007207,0.00001444,-0.00000851,0.00000947,
 -0.00000085,-0.00000225,0.00000444,-0.00000167,0.00001531,-0.00002171,
 -0.00037648,-0.00003498,0.00001118,0.00003556,-0.00003288,-0.00005783,
 -0.00000005,-0.00004077,-0.00001200,0.00002601,0.00006613,-0.00002921,
 0.00009444,0.00005870,-0.00001642,0.00138806,0.00016389,-0.00090125,0.
 00008664,-0.00006992,-0.00000036,0.00035707,0.00014610,0.00123169,-0.0
 0000946,-0.00001746,-0.00003435,-0.00004032,-0.00016060,0.00005476,-0.
 00002335,-0.00003928,0.00000074,0.02705639,0.00008030,-0.00366588,-0.0
 0005389,0.00002209,0.00004512,0.00003806,-0.00001743,0.00007630,0.0000
 7000,0.00012334,0.00008450,0.01719613,-0.04724663,-0.00247488,0.000640
 86,-0.00555200,-0.00242519,0.00059032,0.00169174,-0.00031709,-0.000132
 50,-0.00004025,0.00019282,-0.00001745,0.00000701,-0.00000482,0.0000073
 5,0.00000356,0.00000915,-0.00002746,0.00000003,-0.00001982,-0.00002273
 ,0.00000613,0.00000373,0.00001361,-0.00002219,0.00001014,0.00003380,-0
 .00000290,-0.00000641,-0.00152109,-0.00054693,-0.00165526,0.00008367,0
 .00005806,0.00004757,0.00003394,0.00001647,0.00001295,-0.00003003,0.00
 000271,-0.00003945,0.00000388,-0.00000133,0.00000700,0.00000521,0.0000
 0013,-0.00000619,0.00000426,-0.00000198,0.00000398,0.00000659,-0.00001
 064,-0.00000308,0.00000222,-0.00000091,-0.00000120,-0.00001290,0.00002
 829,0.00002544,0.00000799,0.00000356,-0.00002367,-0.00000190,-0.000004
 42,-0.00003946,-0.00001854,0.00001318,-0.00000392,-0.00001420,-0.00001
 595,-0.00000483,-0.00000481,0.00006025,-0.00003074,-0.00005743,-0.0000
 0811,0.00001458,-0.00005716,-0.00000340,0.00007186,-0.00002305,-0.0000
 0796,-0.00002234,0.00195149,0.00004493,-0.00076749,-0.00030260,-0.0001
 6013,0.00010276,0.00006687,0.00012065,-0.00028666,-0.00030877,0.000161
 71,-0.00010396,-0.00027877,-0.00044650,0.00026599,-0.00004617,-0.00006
 559,-0.00004072,-0.00185117,-0.00106169,0.00049590,-0.02104865,0.05078
 748,-0.00039153,0.00012166,-0.00027801,-0.00046678,0.00027014,0.000085
 47,0.00048095,0.00023593,-0.00068229,-0.00002008,-0.00009689,-0.000013
 74,0.00005829,-0.00002412,-0.00002253,-0.00000437,0.00016264,0.0000281
 1,-0.00004121,-0.00005034,0.00001312,0.00001039,-0.00002712,0.00000526
 ,0.00000625,-0.00000944,0.00001080,-0.00001826,-0.00004797,0.00003634,
 0.00010983,0.00008710,-0.00021128,-0.00001206,-0.00002718,-0.00002329,
 0.00003395,-0.00000305,0.00000100,0.00000799,0.00003029,0.00001148,-0.
 00017231,0.00000291,-0.00001404,0.00186222,-0.00071695,-0.00047461,-0.
 00012203,-0.00014098,0.00013497,0.00062879,0.00058421,-0.00015468,-0.0
 0002316,0.00000070,-0.00003251,-0.00009809,-0.00007783,0.00001198,-0.0
 0004579,-0.00001724,0.00005861,0.01342620,0.00029272,-0.00463518,-0.00
 003915,0.00001644,0.00003872,0.00003345,-0.00000206,0.00010069,0.00006
 320,0.00010898,0.00007909,0.05340397,-0.00287583,-0.05424598,-0.000067
 78,-0.00337282,-0.00117410,-0.00060738,0.00055476,0.00001471,-0.000071
 27,-0.00007880,0.00009766,0.00001001,0.00000310,-0.00001399,0.00000907
 ,-0.00000212,0.00000554,0.00001323,-0.00000852,0.00000496,-0.00001421,
 -0.00000906,-0.00001049,0.00001189,-0.00000048,-0.00000403,0.00002068,
 -0.00000394,-0.00000336,-0.00055182,-0.00055040,0.00290553,0.00007180,
 0.00033740,-0.00001775,-0.00001783,-0.00001778,0.00001334,-0.00005650,
 0.00000695,0.00001216,0.00000907,-0.00000415,0.00000118,0.00001224,0.0
 0001015,-0.00000401,0.00000431,-0.00000260,0.00000879,-0.00000560,0.00
 000215,-0.00000181,0.00001121,0.00000186,-0.00000327,-0.00000921,0.000
 03617,0.00002504,-0.00000164,0.00001277,-0.00002323,-0.00000055,-0.000
 02266,-0.00002717,-0.00002192,0.00002824,-0.00002003,0.00001857,-0.000
 01795,-0.00000245,-0.00004111,0.00005027,-0.00002727,-0.00005687,-0.00
 000349,0.00001831,-0.00004472,0.00000708,0.00005019,-0.00000980,-0.000
 00068,-0.00001782,0.00125744,-0.00022458,0.00024112,0.00020005,0.00008
 916,0.00024735,-0.00036515,0.00004308,0.00021825,-0.00001921,-0.000066
 74,-0.00014763,0.00002895,0.00007928,0.00036996,-0.00015511,-0.0000530
 9,0.00000043,-0.02653803,0.00195861,0.00606550,-0.05941905,0.00579906,
 0.05720595,-0.00038356,-0.00055405,0.00045585,-0.00016948,-0.00007848,
 0.00008495,-0.00017647,0.00029046,-0.00079466,0.00015549,0.00010431,-0
 .00011439,-0.00030925,0.00031561,0.00016411,0.00027524,0.00003661,-0.0
 0003108,-0.00004197,-0.00007091,-0.00003469,0.00000826,0.00000100,-0.0
 0000816,0.00000686,-0.00001720,-0.00000825,0.00001175,0.00000288,-0.00
 004548,0.00024715,-0.00007027,-0.00031096,-0.00002918,0.00003799,0.000
 00674,0.00001103,0.00002706,-0.00000359,0.00004661,0.00000219,0.000005
 78,-0.00001588,0.00003510,0.00004033,0.00006432,-0.00097747,0.00073728
 ,0.00015590,-0.00000425,-0.00000410,-0.00026005,0.00002610,-0.00104487
 ,-0.00002115,0.00000442,0.00002922,-0.00005601,0.00008806,-0.00012842,
 -0.00001392,0.00001631,0.00003716,-0.00034159,0.00505534,-0.00487691,0
 .00002087,-0.00003938,0.00001667,0.00001150,0.00003134,0.00007182,0.00
 003966,-0.00001409,0.00002921,-0.06525589,-0.05708556,0.04447558,0.000
 64401,0.00067747,-0.00095064,-0.00014109,0.00170129,0.00034941,0.00008
 350,0.00004236,-0.00011288,0.00001082,-0.00000818,-0.00001970,0.000001
 50,-0.00000282,-0.00000940,0.00001485,0.00000679,0.00000018,0.00000482
 ,-0.00000846,-0.00000171,0.00000578,0.00000845,-0.00000837,-0.00001144
 ,-0.00000139,0.00000141,0.00014003,-0.00014517,0.00139297,0.00002045,0
 .00012185,0.00004177,-0.00000561,-0.00000033,0.00001729,-0.00000089,-0
 .00000708,-0.00000025,-0.00000158,-0.00000060,-0.00000042,0.00000447,0
 .00000665,-0.00000098,-0.00000254,0.00000133,0.00000109,-0.00000933,0.
 00000662,0.00000202,0.00000570,0.00000270,-0.00000010,-0.00000642,0.00
 001053,-0.00000706,-0.00000759,0.00000978,-0.00001461,-0.00000277,0.00
 000549,-0.00000237,-0.00000814,0.00001405,-0.00000748,-0.00000836,-0.0
 0000658,0.00000063,-0.00001015,0.00001226,-0.00003378,-0.00001540,0.00
 000310,-0.00001368,-0.00002901,0.00001420,0.00001269,0.00000481,0.0000
 0099,-0.00002154,0.00006312,-0.00021429,-0.00012322,-0.00006469,0.0000
 5089,-0.00016313,0.00012591,0.00001138,0.00036785,0.00060317,0.0004949
 1,-0.00007003,0.00015980,0.00023635,-0.00011951,0.00004812,-0.00008668
 ,0.00035245,0.00378709,0.01268829,-0.00894613,-0.00520285,-0.02343021,
 0.01773173,0.06590048,-0.00010401,-0.00043192,0.00015592,-0.00009446,-
 0.00002812,0.00001185,-0.00005736,0.00085264,0.00026548,0.00013190,-0.
 00002730,-0.00009695,-0.00012853,0.00013590,0.00001628,0.00019441,-0.0
 0018770,0.00020230,-0.00000642,-0.00003773,-0.00000610,0.00000353,0.00
 000149,0.00000493,0.00000850,-0.00001530,0.00000901,-0.00002115,0.0000
 2615,-0.00000218,-0.00033411,0.00019079,0.00040789,-0.00005519,0.00000
 554,0.00002054,0.00000598,0.00001451,0.00000004,0.00000236,-0.00000132
 ,0.00000369,0.00034936,0.00008367,0.00010591,0.00034936,-0.00154950,0.
 00182884,0.00041240,0.00034280,-0.00058297,-0.00009039,0.00040754,-0.0
 0048132,-0.00000821,-0.00000393,0.00001968,-0.00004805,0.00005110,-0.0
 0018333,-0.00001741,0.00000487,0.00001255,-0.00802878,-0.01867934,0.01
 715865,0.00006127,0.00000797,-0.00003976,0.00006621,0.00007087,0.00005
 686,-0.00005041,-0.00001330,0.00001271,-0.05640182,-0.20349879,0.12029
 927,-0.00147224,0.00118309,0.00095689,0.00194787,-0.00523234,-0.004427
 93,0.00000660,-0.00000914,-0.00006409,0.00000008,-0.00000100,-0.000008
 89,0.00000119,-0.00000184,-0.00000582,0.00000278,0.00000086,0.00000094
 ,0.00000319,-0.00000246,-0.00000180,0.00000024,0.00000263,-0.00000107,
 -0.00000797,0.00000099,0.00000294,0.00018832,-0.00021976,0.00038140,-0
 .00001757,0.00014294,-0.00000195,0.00005077,0.00000022,0.00001118,0.00
 001033,-0.00000293,0.00000327,-0.00000266,0.00000080,-0.00000152,0.000
 00399,0.00000311,-0.00000122,-0.00000228,0.00000070,-0.00000064,-0.000
 00372,0.00000265,0.00000170,0.00000429,0.00000119,0.00000004,-0.000010
 22,0.00001087,-0.00001250,-0.00002571,0.00001486,-0.00004366,0.0000098
 8,0.00000455,0.00001523,-0.00002606,0.00003385,-0.00007347,0.00008516,
 0.00003948,0.00004037,-0.00014343,0.00002448,0.00004967,0.00001517,0.0
 0002631,-0.00000092,0.00001999,-0.00002633,0.00000687,0.00001063,0.000
 01809,-0.00006596,-0.00018129,0.00036421,-0.00021895,0.00012616,-0.000
 07546,0.00002785,0.00082839,0.00016633,-0.00063938,-0.00029943,-0.0014
 1989,0.00156415,0.00003807,0.00025570,-0.00010757,0.00008064,0.0003303
 0,-0.00017651,0.00071638,0.00166365,-0.00224170,0.00139214,0.00196749,
 -0.00240276,0.06057269,0.22288233,0.00017108,0.00017484,-0.00020382,0.
 00008458,-0.00002422,0.00001032,-0.00092970,0.00035722,-0.00070051,0.0
 0004325,0.00001160,-0.00001037,0.00004109,-0.00008454,0.00003148,-0.00
 016343,-0.00001940,-0.00028228,0.00000338,0.00001414,-0.00001111,0.000
 01049,-0.00000210,0.00000320,0.00001333,-0.00002002,0.00000484,0.00000
 945,0.00004215,0.00002028,-0.00068404,-0.00047413,-0.00140973,0.000032
 72,-0.00001330,0.00000232,0.00000986,-0.00001128,0.00000062,-0.0000040
 6,0.00001495,-0.00000171,-0.00001355,-0.00010334,-0.00006281,-0.000371
 57,-0.00043157,0.00053450,0.00015429,-0.00006201,-0.00077559,0.0000501
 9,-0.00009117,0.00013538,-0.00000352,-0.00000205,-0.00002436,0.0002155
 6,-0.00002817,0.00002436,-0.00001396,-0.00000983,0.00000138,-0.0043964
 0,-0.01119931,0.00775074,-0.00006488,0.00006525,0.00002550,-0.00001569
 ,0.00000932,0.00003349,0.00001289,0.00001648,-0.00000102,0.04484032,0.
 12267646,-0.13766269,-0.00050751,-0.00013946,0.00079443,0.00030189,-0.
 00203102,-0.00073480,-0.00000749,-0.00000182,0.00005601,0.00000013,0.0
 0000536,0.00000167,0.00000326,0.00000011,0.00000614,-0.00000596,-0.000
 00101,-0.00000125,-0.00000476,0.00000293,0.00000438,0.00000299,-0.0000
 0117,-0.00000002,0.00001151,-0.00000280,-0.00000128,-0.00005769,0.0000
 6324,-0.00043868,0.00001733,0.00001562,-0.00000398,-0.00000478,-0.0000
 0846,-0.00000851,-0.00001698,-0.00000014,-0.00000130,0.00000240,-0.000
 00028,0.00000350,0.00000066,0.00000078,-0.00000192,0.00000212,-0.00000
 065,0.00000311,0.00000106,-0.00000250,-0.00000236,0.00000102,0.0000003
 4,-0.00000173,0.00001253,0.00001927,0.00003193,-0.00000193,-0.00000831
 ,-0.00000267,-0.00000214,-0.00000495,0.00000004,-0.00000523,0.00001700
 ,0.00000581,0.00000132,0.00000044,0.00000151,0.00000092,0.00000903,0.0
 0001790,-0.00000772,0.00001101,0.00000760,-0.00000269,-0.00000025,-0.0
 0000122,0.00000351,0.00000010,-0.00000444,-0.00026944,-0.00006404,0.00
 001269,0.00002491,0.00020888,-0.00021136,-0.00002742,0.00023063,0.0000
 5848,0.00013872,-0.00058846,0.00083569,-0.00006827,-0.00008578,-0.0001
 6397,0.00033432,-0.00021474,0.00034633,0.00876803,0.01990599,-0.014534
 19,-0.00032309,0.00333378,-0.00391243,-0.04742325,-0.13146915,0.150060
 05,0.00035364,0.00101393,-0.00146560,-0.00008862,-0.00003997,0.0001071
 6,-0.00059593,-0.00031455,0.00046027,0.00000760,-0.00022850,0.00010074
 ,0.00029729,-0.00025923,-0.00009789,0.00009499,0.00041434,0.00000064,-
 0.00027058,-0.00037413,0.00068665,0.00001819,-0.00006228,0.00002104,0.
 00002240,-0.00000212,-0.00001669,-0.00000357,0.00002520,-0.00000922,0.
 00009639,0.00002874,-0.00014403,0.00036868,0.00007391,0.00035819,0.000
 05056,-0.00000245,-0.00002912,-0.00017522,0.00017537,-0.00024988,0.000
 01625,-0.00001439,-0.00002064,0.00172959,-0.00018079,-0.00417235,-0.00
 000685,-0.00006625,-0.00006313,0.03355814,-0.00126430,0.01071870,0.000
 25086,-0.00005188,0.00001069,0.00034544,-0.00008871,-0.00006158,0.0002
 7348,-0.00021793,0.00152493,-0.00166585,0.00021169,0.00127212,-0.00010
 657,0.00015203,0.00009268,-0.00006681,0.00003726,0.00006737,0.00002253
 ,0.00003135,-0.00000220,0.00078917,-0.00002252,0.00029594,-0.00004460,
 -0.00032880,-0.00053843,0.00157019,0.00090252,0.00018107,-0.00969302,0
 .00023701,-0.00105726,0.00000627,-0.00010455,-0.00004599,-0.00007890,-
 0.00002564,0.00018582,0.00012543,0.00005009,0.00005813,-0.00034664,-0.
 00008889,-0.00041111,-0.00002192,0.00012117,-0.00029471,0.00009057,0.0
 0005426,-0.00015022,-0.05295515,-0.00810497,0.08028353,0.00017651,0.00
 045107,0.00005444,-0.00015399,0.00010560,0.00025188,-0.00019702,0.0000
 3851,0.00005549,-0.00003096,-0.00011457,-0.00011764,0.00012101,0.00005
 647,0.00005358,0.00005118,-0.00001106,-0.00001140,-0.00004103,0.000029
 35,0.00001412,0.00001617,0.00002519,0.00000780,0.00000135,0.00004804,0
 .00004119,-0.00002376,-0.00001056,-0.00000545,-0.00009049,0.00001065,0
 .00001564,-0.00001868,0.00004010,0.00004960,-0.00006661,-0.00003695,-0
 .00002371,0.00008723,-0.00003587,0.00000100,-0.00001420,0.00003160,0.0
 0003473,0.00004156,-0.00001489,-0.00003314,0.00000523,-0.00001790,-0.0
 0000226,0.00000739,0.00004419,-0.00000386,-0.00023464,0.00000285,-0.00
 005153,-0.00008320,-0.00007346,0.00007989,-0.00047790,-0.00003988,0.00
 011484,-0.00270335,0.00036198,0.00022797,-0.00021148,-0.00000739,-0.00
 003451,0.00003795,0.00003116,-0.00004953,-0.00070811,-0.00012255,-0.00
 000613,-0.00008079,-0.00006138,0.00007600,0.03062321,0.00013487,0.0013
 5189,-0.00354542,-0.00010709,-0.00098576,0.00031968,-0.00038481,-0.001
 00809,-0.00020061,-0.00001522,0.00025546,0.00043621,0.00017092,-0.0006
 4508,0.00004865,0.00015529,0.00064418,0.00015128,-0.00056721,0.0004354
 0,-0.00080649,0.00002039,-0.00003984,-0.00000919,-0.00002741,0.0000014
 4,-0.00008308,-0.00003475,-0.00000819,0.00002735,-0.00005409,0.0001595
 1,-0.00042434,-0.00014756,-0.00007465,-0.00007187,0.00003775,0.0000241
 8,-0.00008137,0.00028110,-0.00017773,0.00021417,0.00018690,0.00010973,
 0.00007054,0.00086453,-0.00141876,0.00058390,-0.00002219,-0.00004474,0
 .00000521,-0.00105522,0.03633099,0.00552732,-0.00008964,-0.00002645,-0
 .00004832,-0.00021617,-0.00013311,-0.00014144,-0.00014702,-0.00021625,
 0.00038579,0.00019015,0.00024083,0.00014729,-0.00004062,-0.00022357,0.
 00004231,-0.00002377,-0.00002382,0.00010729,0.00001607,0.00012809,0.00
 007962,0.00062307,-0.00010269,0.00003237,-0.00002460,0.00032652,-0.000
 27122,-0.00102549,-0.00025003,-0.00003777,0.00028204,-0.00908727,0.001
 11448,-0.00000022,0.00005184,-0.00018916,0.00006161,0.00003189,-0.0000
 2666,-0.00002754,0.00003636,0.00005965,0.00019895,-0.00025295,-0.00002
 338,0.00003468,0.00002804,-0.00002698,0.00002532,0.00007750,-0.0001275
 3,-0.00824630,-0.05609455,0.08585818,0.00082626,0.00193955,0.00238628,
 -0.00022348,-0.00069736,0.00104380,0.00001108,-0.00001539,0.00014465,-
 0.00004557,0.00002693,-0.00004441,0.00012048,0.00004620,-0.00000233,0.
 00000588,0.00000043,0.00000714,-0.00001977,0.00001466,-0.00000135,0.00
 008240,-0.00000414,-0.00000177,0.00006266,0.00005767,-0.00000933,-0.00
 002593,0.00004947,-0.00006578,0.00008468,0.00004537,-0.00004663,-0.000
 01246,0.00005579,-0.00002929,0.00003934,0.00000023,0.00003923,-0.00006
 298,0.00001023,-0.00000682,-0.00005206,0.00001626,0.00003853,-0.000002
 62,-0.00000110,-0.00000210,0.00002277,0.00001868,-0.00005094,-0.000071
 68,0.00001628,0.00003411,-0.00007346,-0.00003602,-0.00000238,0.0001505
 9,0.00006024,-0.00006061,0.00016961,0.00005556,-0.00002836,0.00071634,
 -0.00016927,0.00010498,0.00019259,0.00003043,-0.00010178,-0.00005190,-
 0.00001970,-0.00004999,-0.00050135,-0.00018055,0.00002582,0.00004822,0
 .00012790,-0.00000546,0.00758366,0.02913133,-0.00210907,-0.00994904,0.
 00665432,0.00048106,0.00373242,-0.00152797,0.00128064,0.00220643,-0.00
 126536,-0.00074761,-0.00096735,-0.00011791,0.00014543,0.00228273,-0.00
 020715,-0.00026286,-0.00126369,0.00006618,0.00069327,-0.00110091,-0.00
 170721,-0.00019232,0.00033356,-0.00009307,-0.00001856,0.00003315,0.000
 03903,0.00013161,0.00012461,-0.00012019,0.00156731,0.00032317,0.000392
 83,-0.00164857,-0.00034878,0.00266443,-0.00034860,0.00060912,0.0005690
 2,-0.00100527,0.00041537,0.00000704,-0.00014212,-0.00051464,0.00037960
 ,-0.01603946,0.00050770,0.00179019,0.00039867,0.00085863,-0.00050186,0
 .02217836,0.01713575,-0.07096874,0.00038623,-0.00015984,0.00067316,0.0
 0193957,0.00097527,0.00044228,0.00108681,0.00201386,-0.00400046,0.0018
 4775,0.00010681,-0.00355822,0.00002945,-0.00013046,0.00005110,-0.00001
 269,0.00015423,-0.00052982,-0.00005476,-0.00106659,-0.00041838,0.00153
 363,-0.00109707,0.00095009,0.00038783,0.00024396,0.00267009,0.00142726
 ,0.00148129,0.00054537,-0.00225812,-0.00084281,-0.00110486,0.00015310,
 -0.00055685,0.00052204,-0.00012984,0.00011729,0.00008700,0.00055365,0.
 00020230,0.00009976,-0.00108138,0.00011672,0.00034160,-0.00031568,-0.0
 0028012,0.00055576,-0.00065799,-0.00022653,0.00107870,0.07857422,0.084
 06961,-0.96414609,-0.00240978,-0.00329995,0.00714253,-0.00010279,-0.00
 298949,-0.00098943,0.00127735,0.00001442,-0.00047651,0.00015089,0.0002
 4949,0.00029923,-0.00053858,-0.00023871,0.00006350,-0.00009551,0.00002
 899,-0.00004289,-0.00007932,0.00014560,0.00001032,-0.00038041,-0.00002
 712,0.00001544,0.00052750,-0.00039023,-0.00018185,-0.00013678,-0.00021
 422,0.00052722,-0.00004878,0.00069489,0.00016274,0.00014655,-0.0003053
 3,0.00009560,-0.00029635,0.00018737,-0.00014244,0.00047207,-0.00008017
 ,0.00010182,0.00040040,-0.00005659,-0.00032552,0.00018401,0.00004468,0
 .00001965,-0.00011599,-0.00000147,0.00016890,-0.00017848,0.00003748,-0
 .00011285,0.00112821,0.00007733,0.00015904,-0.00052476,-0.00024365,0.0
 0011698,-0.00088957,-0.00000753,0.00019332,0.00179363,-0.00159604,-0.0
 0168145,0.00038302,-0.00035394,0.00057832,0.00072110,0.00041296,0.0004
 5895,0.00014639,0.00107849,-0.00192262,-0.00097037,-0.00029483,0.00034
 639,-0.08833461,-0.09241171,1.02510333\\0.00001707,-0.00000281,0.00000
 253,-0.00000697,0.00000325,-0.00000333,-0.00000398,-0.00000518,0.00000
 995,-0.00000217,-0.00000587,0.00000243,0.00001076,0.00000005,-0.000005
 55,-0.00000361,0.00000809,-0.00000862,0.00000922,-0.00001010,0.0000026
 1,0.00000242,0.00000147,-0.00000109,0.00000186,-0.00000083,-0.00000463
 ,0.00000244,-0.00000262,-0.00000181,-0.00000366,-0.00001073,-0.0000004
 6,-0.00002541,0.00000573,-0.00000449,0.00000288,0.00000229,0.00000311,
 0.00000026,0.00000278,-0.00000503,0.00000255,0.00000405,0.00000049,-0.
 00000206,-0.00000185,-0.00000713,0.00000472,-0.00000469,-0.00000074,0.
 00002922,-0.00002648,0.00000450,0.00000059,0.00001017,0.00000023,-0.00
 000144,-0.00000373,0.00000034,-0.00000243,0.00000203,0.00000165,-0.000
 00402,0.00000782,0.00000858,0.00002201,-0.00000932,-0.00000029,0.00000
 167,0.00000180,-0.00000908,0.00000927,-0.00000682,0.00000756,0.0000012
 3,-0.00000641,0.00000249,0.00000679,-0.00000753,0.00000147,0.00000562,
 0.00000184,-0.00000233,-0.00000869,0.00000076,-0.00000872,0.00000528,0
 .00000132,-0.00000381,-0.00000046,-0.00000435,-0.00000392,-0.00000268,
 0.00000216,0.00000390,-0.00000221,0.00000178,0.00000078,-0.00000943,0.
 00000194,0.00000721,0.00000087,0.00000209,-0.00000311,-0.00001011,0.00
 003558,0.00000289,0.00001079,0.00001060,-0.00000865,-0.00000241,0.0000
 0727,0.00000342,0.00000032,-0.00000109,0.00000652,-0.00000765,0.000005
 61,-0.00000470,0.00000057,0.00000315,-0.00000184,0.00000143,0.00000036
 ,0.00000180,0.00000174,-0.00000005,-0.00000305,-0.00000301,0.00000074,
 0.00000143,-0.00000384,-0.00000051,0.00000345,-0.00000862,0.00000145,0
 .00000386,-0.00000594,0.00000341,0.00000095,-0.00000251,-0.00000018,0.
 00000103,-0.00000037,-0.00000122,0.00000487,-0.00000607,-0.00000719,-0
 .00000030,-0.00000286,-0.00000635,0.00000302,-0.00000244,-0.00000106,-
 0.00000837,-0.00000752,-0.00000185,0.00000073,0.00000176,0.00000364,0.
 00000203,-0.00000283,-0.00000031,-0.00000056,-0.00000057,0.00000039,0.
 00000265,-0.00000688,-0.00000010,0.00000052,-0.00000220,-0.00000042,0.
 00000233,-0.00000013,0.00000266,-0.00000285,-0.00000224,0.00000077,-0.
 00000296,0.00000046,0.00000368,0.00000246,0.00000066,-0.00000099,-0.00
 000681,0.00000298,-0.00001009,0.00001044\\\@


 WHEN ALL ELSE FAILS, TRY THE BOSS'S SUGGESTION.
 Job cpu time:       0 days 20 hours  2 minutes 50.6 seconds.
 Elapsed time:       0 days  1 hours  0 minutes 13.3 seconds.
 File lengths (MBytes):  RWF=   2077 Int=      0 D2E=      0 Chk=     30 Scr=      1
 Normal termination of Gaussian 16 at Fri Nov  9 11:43:12 2018.
