 Entering Gaussian System, Link 0=g16
 Initial command:
 /cluster/chemistry/gaussian/g16/l1.exe "/scratch/js1212.757659/scratch/Gau-28451.inp" -scrdir="/scratch/js1212.757659/scratch/"
 Entering Link 1 = /cluster/chemistry/gaussian/g16/l1.exe PID=     28453.
  
 Copyright (c) 1988,1990,1992,1993,1995,1998,2003,2009,2016,
            Gaussian, Inc.  All Rights Reserved.
  
 This is part of the Gaussian(R) 16 program.  It is based on
 the Gaussian(R) 09 system (copyright 2009, Gaussian, Inc.),
 the Gaussian(R) 03 system (copyright 2003, Gaussian, Inc.),
 the Gaussian(R) 98 system (copyright 1998, Gaussian, Inc.),
 the Gaussian(R) 94 system (copyright 1995, Gaussian, Inc.),
 the Gaussian 92(TM) system (copyright 1992, Gaussian, Inc.),
 the Gaussian 90(TM) system (copyright 1990, Gaussian, Inc.),
 the Gaussian 88(TM) system (copyright 1988, Gaussian, Inc.),
 the Gaussian 86(TM) system (copyright 1986, Carnegie Mellon
 University), and the Gaussian 82(TM) system (copyright 1983,
 Carnegie Mellon University). Gaussian is a federally registered
 trademark of Gaussian, Inc.
  
 This software contains proprietary and confidential information,
 including trade secrets, belonging to Gaussian, Inc.
  
 This software is provided under written license and may be
 used, copied, transmitted, or stored only in accord with that
 written license.
  
 The following legend is applicable only to US Government
 contracts under FAR:
  
                    RESTRICTED RIGHTS LEGEND
  
 Use, reproduction and disclosure by the US Government is
 subject to restrictions as set forth in subparagraphs (a)
 and (c) of the Commercial Computer Software - Restricted
 Rights clause in FAR 52.227-19.
  
 Gaussian, Inc.
 340 Quinnipiac St., Bldg. 40, Wallingford CT 06492
  
  
 ---------------------------------------------------------------
 Warning -- This program may not be used in any manner that
 competes with the business of Gaussian, Inc. or will provide
 assistance to any competitor of Gaussian, Inc.  The licensee
 of this program is prohibited from giving any competitor of
 Gaussian, Inc. access to this program.  By using this program,
 the user acknowledges that Gaussian, Inc. is engaged in the
 business of creating and licensing software in the field of
 computational chemistry and represents and warrants to the
 licensee that it is not a competitor of Gaussian, Inc. and that
 it will not use this program in any manner prohibited above.
 ---------------------------------------------------------------
  

 Cite this work as:
 Gaussian 16, Revision A.03,
 M. J. Frisch, G. W. Trucks, H. B. Schlegel, G. E. Scuseria, 
 M. A. Robb, J. R. Cheeseman, G. Scalmani, V. Barone, 
 G. A. Petersson, H. Nakatsuji, X. Li, M. Caricato, A. V. Marenich, 
 J. Bloino, B. G. Janesko, R. Gomperts, B. Mennucci, H. P. Hratchian, 
 J. V. Ortiz, A. F. Izmaylov, J. L. Sonnenberg, D. Williams-Young, 
 F. Ding, F. Lipparini, F. Egidi, J. Goings, B. Peng, A. Petrone, 
 T. Henderson, D. Ranasinghe, V. G. Zakrzewski, J. Gao, N. Rega, 
 G. Zheng, W. Liang, M. Hada, M. Ehara, K. Toyota, R. Fukuda, 
 J. Hasegawa, M. Ishida, T. Nakajima, Y. Honda, O. Kitao, H. Nakai, 
 T. Vreven, K. Throssell, J. A. Montgomery, Jr., J. E. Peralta, 
 F. Ogliaro, M. J. Bearpark, J. J. Heyd, E. N. Brothers, K. N. Kudin, 
 V. N. Staroverov, T. A. Keith, R. Kobayashi, J. Normand, 
 K. Raghavachari, A. P. Rendell, J. C. Burant, S. S. Iyengar, 
 J. Tomasi, M. Cossi, J. M. Millam, M. Klene, C. Adamo, R. Cammi, 
 J. W. Ochterski, R. L. Martin, K. Morokuma, O. Farkas, 
 J. B. Foresman, and D. J. Fox, Gaussian, Inc., Wallingford CT, 2016.
 
 ******************************************
 Gaussian 16:  ES64L-G16RevA.03 25-Dec-2016
                22-Jul-2020 
 ******************************************
 %rwf=/scratch/js1212.757659/J-Trans-Mono-H2O-T0-RuO-Scan-GPO-Scan5-SMD.rwf
 %nosave
 %nprocshared=20
 Will use up to   20 processors via shared memory.
 %mem=3000MB
 %chk=/scratch/js1212.757659/J-Trans-Mono-H2O-T0-RuO-Scan-GPO-Scan5-SMD.chk
 -------------------------------------------------------------------
 # genecp pbe1pbe EmpiricalDispersion=GD3BJ scrf=(SMD,solvent=water)
 -------------------------------------------------------------------
 1/38=1,172=1/1;
 2/12=2,17=6,18=5,40=1/2;
 3/5=7,11=2,16=1,17=8,25=1,30=1,70=32201,72=1,74=-13,124=41/1,2,3;
 4//1;
 5/5=2,38=5,53=1/2;
 6/7=2,8=2,9=2,10=2,28=1/1;
 99/5=1,9=1/99;
 -------------------
 Title card Required
 -------------------
 Symbolic Z-matrix:
 Charge =  0 Multiplicity = 3
 H                    -3.88018  -3.02646   1.4571 
 C                    -3.39356  -2.47771   0.63728 
 H                    -3.92904  -2.73157  -0.28985 
 H                    -2.35924  -2.83617   0.55362 
 H                     1.47375  -0.46072   2.682 
 O                    -0.56679  -2.32479   4.0879 
 H                     4.07816  -1.77253   0.32744 
 O                     0.56245  -2.71555   4.08812 
 C                    -3.43407  -0.99808   0.94788 
 H                     3.03619   0.05426   3.378 
 H                    -4.48613  -0.65118   0.98333 
 C                     2.53401  -0.28608   2.45649 
 H                     2.51798  -2.60669   0.09117 
 H                     2.98183  -1.24473   2.16159 
 H                    -2.99513  -0.79965   1.9358 
 C                     3.33694  -2.08326  -0.42298 
 H                     3.83148  -2.80824  -1.09155 
 H                    -2.7239    1.30182   1.49323 
 Ru                   -0.43335  -0.33187   0.07834 
 H                     0.86915   1.84658   2.04196 
 N                    -2.67311  -0.14493   0.00562 
 C                    -2.90381   1.25884   0.40555 
 C                     2.66896   0.79185   1.37869 
 H                     2.37529   2.34963   2.84157 
 H                     4.73466   0.19603  -1.19319 
 C                     1.93839   2.04411   1.87587 
 C                     2.82598  -0.90327  -1.25206 
 P                     1.71672   0.19499  -0.16119 
 H                    -3.94502   1.57662   0.21794 
 C                     4.00084  -0.18207  -1.91492 
 H                    -2.70484  -1.37912  -1.67386 
 H                    -5.16666  -0.90877  -1.22377 
 H                     4.52671  -0.89077  -2.57743 
 C                    -3.04887  -0.36959  -1.41182 
 H                     4.55666   1.57466   2.06547 
 C                    -0.07339  -2.00636   0.69206 
 C                     4.13797   1.1319    1.14551 
 H                     1.03193  -1.95791  -1.91331 
 C                     1.9011   -1.44404  -2.34829 
 H                     4.74146   0.24433   0.90911 
 H                     2.4649   -2.14626  -2.98597 
 C                    -1.93559   2.19661  -0.24614 
 N                    -0.71343   1.67339  -0.46644 
 C                    -4.52107  -0.20015  -1.76326 
 H                     2.04438   2.89594   1.18648 
 H                    -2.43544   0.3191   -2.01134 
 H                     3.67339   0.65969  -2.54378 
 H                    -4.89145   0.81705  -1.5665 
 C                     1.58713   1.75298  -1.20753 
 H                    -4.65227  -0.38972  -2.83912 
 H                     4.27536   1.8693    0.33908 
 C                     0.28106   2.44234  -0.96316 
 C                    -2.21814   3.52816  -0.52512 
 H                     1.51639  -0.64163  -2.99812 
 H                    -3.2173    3.92402  -0.33979 
 H                     1.60056   1.40333  -2.25307 
 H                     2.43438   2.44587  -1.09073 
 C                     0.063     3.79079  -1.23585 
 C                    -1.19872   4.33826  -1.01917 
 H                     0.87924   4.40062  -1.62468 
 H                    -1.3865    5.39136  -1.23591 
 O                     0.21928  -3.07084   1.09558 
 O                    -1.14749   0.60505   2.98217 
 H                    -1.07409  -0.18035   3.54022 
 H                    -0.74228   0.27569   2.11835 
 
 Stoichiometry    C20H37N2O4PRu(3)
 Framework group  C1[X(C20H37N2O4PRu)]
 Deg. of freedom   189
 Full point group                 C1      NOp   1
 Largest Abelian subgroup         C1      NOp   1
 Largest concise Abelian subgroup C1      NOp   1
                         Standard orientation:                         
 ---------------------------------------------------------------------
 Center     Atomic      Atomic             Coordinates (Angstroms)
 Number     Number       Type             X           Y           Z
 ---------------------------------------------------------------------
      1          1           0       -3.529094    3.630664    0.686801
      2          6           0       -3.140137    2.675769    1.070093
      3          1           0       -3.707736    2.432969    1.980933
      4          1           0       -2.086580    2.821305    1.342409
      5          1           0        1.657586    1.623888   -1.725488
      6          8           0       -0.132491    4.151163   -1.879170
      7          1           0        4.214845    1.154282    0.974077
      8          8           0        1.023219    4.359753   -1.658555
      9          6           0       -3.284483    1.622271   -0.005418
     10          1           0        3.211076    1.417904   -2.582855
     11          1           0       -4.357632    1.461723   -0.231225
     12          6           0        2.684116    1.246535   -1.628835
     13          1           0        2.717870    1.877031    1.624090
     14          1           0        3.191329    1.834497   -0.851940
     15          1           0       -2.804635    1.954321   -0.936832
     16          6           0        3.457991    1.076687    1.767950
     17          1           0        3.969699    1.261012    2.727807
     18          1           0       -2.736019   -0.060237   -1.725767
     19         44           0       -0.407458    0.284772    0.366184
     20          1           0        0.825988   -0.579961   -2.467332
     21          7           0       -2.655289    0.319475    0.313333
     22          6           0       -2.977127   -0.602571   -0.795716
     23          6           0        2.663752   -0.252937   -1.323933
     24          1           0        2.330720   -0.713450   -3.404794
     25          1           0        4.612591   -1.380661    1.159396
     26          6           0        1.863142   -0.944637   -2.432823
     27          6           0        2.801693   -0.304851    1.806114
     28         15           0        1.673040   -0.504347    0.285259
     29          1           0       -4.050552   -0.862396   -0.819367
     30          6           0        3.870430   -1.387382    1.966545
     31          1           0       -2.685895    0.426027    2.394824
     32          1           0       -5.146550    0.534991    1.748554
     33          1           0        4.412309   -1.216458    2.912514
     34          6           0       -3.096063   -0.232819    1.617750
     35          1           0        4.517996   -0.719603   -2.319854
     36          6           0        0.126676    1.974099    0.779742
     37          6           0        4.082687   -0.813683   -1.310249
     38          1           0        1.064705    0.391810    2.931138
     39          6           0        1.860345   -0.362332    3.014468
     40          1           0        4.742371   -0.268604   -0.620642
     41          1           0        2.440922   -0.187064    3.936326
     42          6           0       -2.131243   -1.837518   -0.765026
     43          7           0       -0.885425   -1.649448   -0.286987
     44          6           0       -4.595789   -0.415165    1.810577
     45          1           0        1.856206   -2.040505   -2.327281
     46          1           0       -2.579271   -1.196049    1.740690
     47          1           0        3.436836   -2.397244    2.025158
     48          1           0       -5.036751   -1.113477    1.083598
     49          6           0        1.351591   -2.357849    0.297856
     50          1           0       -4.775566   -0.834345    2.811868
     51          1           0        4.109418   -1.881986   -1.043806
     52          6           0        0.009967   -2.662002   -0.292298
     53          6           0       -2.539678   -3.066605   -1.268236
     54          1           0        1.371795   -1.345160    3.112010
     55          1           0       -3.555227   -3.191031   -1.645811
     56          1           0        1.330800   -2.642390    1.362848
     57          1           0        2.143912   -2.955737   -0.177876
     58          6           0       -0.335344   -3.908281   -0.809776
     59          6           0       -1.622750   -4.114409   -1.298364
     60          1           0        0.402473   -4.711335   -0.818118
     61          1           0       -1.910038   -5.087988   -1.699422
     62          8           0        0.530542    3.048796    1.031790
     63          8           0       -1.020129    1.172830   -2.575932
     64          1           0       -0.848212    2.123142   -2.607746
     65          1           0       -0.641917    0.930916   -1.671892
 ---------------------------------------------------------------------
 Rotational constants (GHZ):           0.1790879           0.1508160           0.1168702
 General basis read from cards:  (5D, 7F)
 ======================================================================================================
                                       Pseudopotential Parameters
 ======================================================================================================
  Center     Atomic      Valence      Angular      Power
  Number     Number     Electrons     Momentum     of R      Exponent        Coefficient   SO-Coeffient
 ======================================================================================================
    1          1
                                   No pseudopotential on this center.
    2          6
                                   No pseudopotential on this center.
    3          1
                                   No pseudopotential on this center.
    4          1
                                   No pseudopotential on this center.
    5          1
                                   No pseudopotential on this center.
    6          8
                                   No pseudopotential on this center.
    7          1
                                   No pseudopotential on this center.
    8          8
                                   No pseudopotential on this center.
    9          6
                                   No pseudopotential on this center.
   10          1
                                   No pseudopotential on this center.
   11          1
                                   No pseudopotential on this center.
   12          6
                                   No pseudopotential on this center.
   13          1
                                   No pseudopotential on this center.
   14          1
                                   No pseudopotential on this center.
   15          1
                                   No pseudopotential on this center.
   16          6
                                   No pseudopotential on this center.
   17          1
                                   No pseudopotential on this center.
   18          1
                                   No pseudopotential on this center.
   19         44           16
                                      G and up 
                                                     2        1.0000000        0.00000000    0.00000000
                                      S - G
                                                     2       11.1052690      209.82297100    0.00000000
                                                     2        5.4147450       30.65472600    0.00000000
                                      P - G
                                                     2        9.7712710      146.33618200    0.00000000
                                                     2        5.0739910       24.12787700    0.00000000
                                      D - G
                                                     2        7.6714230       67.51589700    0.00000000
                                                     2        4.1365650        9.87010400    0.00000000
                                      F - G
                                                     2       11.3600000      -28.34061600    0.00000000
                                                     2        5.6800000       -4.94462900    0.00000000
   20          1
                                   No pseudopotential on this center.
   21          7
                                   No pseudopotential on this center.
   22          6
                                   No pseudopotential on this center.
   23          6
                                   No pseudopotential on this center.
   24          1
                                   No pseudopotential on this center.
   25          1
                                   No pseudopotential on this center.
   26          6
                                   No pseudopotential on this center.
   27          6
                                   No pseudopotential on this center.
   28         15
                                   No pseudopotential on this center.
   29          1
                                   No pseudopotential on this center.
   30          6
                                   No pseudopotential on this center.
   31          1
                                   No pseudopotential on this center.
   32          1
                                   No pseudopotential on this center.
   33          1
                                   No pseudopotential on this center.
   34          6
                                   No pseudopotential on this center.
   35          1
                                   No pseudopotential on this center.
   36          6
                                   No pseudopotential on this center.
   37          6
                                   No pseudopotential on this center.
   38          1
                                   No pseudopotential on this center.
   39          6
                                   No pseudopotential on this center.
   40          1
                                   No pseudopotential on this center.
   41          1
                                   No pseudopotential on this center.
   42          6
                                   No pseudopotential on this center.
   43          7
                                   No pseudopotential on this center.
   44          6
                                   No pseudopotential on this center.
   45          1
                                   No pseudopotential on this center.
   46          1
                                   No pseudopotential on this center.
   47          1
                                   No pseudopotential on this center.
   48          1
                                   No pseudopotential on this center.
   49          6
                                   No pseudopotential on this center.
   50          1
                                   No pseudopotential on this center.
   51          1
                                   No pseudopotential on this center.
   52          6
                                   No pseudopotential on this center.
   53          6
                                   No pseudopotential on this center.
   54          1
                                   No pseudopotential on this center.
   55          1
                                   No pseudopotential on this center.
   56          1
                                   No pseudopotential on this center.
   57          1
                                   No pseudopotential on this center.
   58          6
                                   No pseudopotential on this center.
   59          6
                                   No pseudopotential on this center.
   60          1
                                   No pseudopotential on this center.
   61          1
                                   No pseudopotential on this center.
   62          8
                                   No pseudopotential on this center.
   63          8
                                   No pseudopotential on this center.
   64          1
                                   No pseudopotential on this center.
   65          1
                                   No pseudopotential on this center.
 ======================================================================================================
 There are  1543 symmetry adapted cartesian basis functions of A   symmetry.
 There are  1368 symmetry adapted basis functions of A   symmetry.
  1368 basis functions,  2141 primitive gaussians,  1543 cartesian basis functions
   118 alpha electrons      116 beta electrons
       nuclear repulsion energy      3582.3471118309 Hartrees.
 NAtoms=   65 NActive=   65 NUniq=   65 SFac= 1.00D+00 NAtFMM=   60 NAOKFM=T Big=T
 Integral buffers will be    131072 words long.
 Raffenetti 2 integral format.
 Two-electron integral symmetry is turned on.
 Nuclear repulsion after empirical dispersion term =     3582.2484027646 Hartrees.
 ------------------------------------------------------------------------------
 Polarizable Continuum Model (PCM)
 =================================
 Model                : PCM.
 Atomic radii         : SMD-Coulomb.
 Polarization charges : Total charges.
 Charge compensation  : None.
 Solution method      : On-the-fly selection.
 Cavity type          : VdW (van der Waals Surface) (Alpha=1.000).
 Cavity algorithm     : GePol (No added spheres)
                        Default sphere list used, NSphG=   65.
                        Lebedev-Laikov grids with approx.  5.0 points / Ang**2.
                        Smoothing algorithm: York/Karplus (Gamma=1.0000).
                        Polarization charges: spherical gaussians, with
                                              point-specific exponents (IZeta= 3).
                        Self-potential: point-specific (ISelfS= 7).
                        Self-field    : sphere-specific E.n sum rule (ISelfD= 2).
 Solvent              : Water, Eps=  78.355300 Eps(inf)=   1.777849
 ------------------------------------------------------------------------------
 ------------------------------------------------------------------------------
 Atomic radii for non-electrostatic terms: SMD-CDS.
 ------------------------------------------------------------------------------
 Nuclear repulsion after PCM non-electrostatic terms =     3582.2647446535 Hartrees.
 One-electron integrals computed using PRISM.
   1 Symmetry operations used in ECPInt.
 ECPInt:  NShTT=  129286 NPrTT=  465459 LenC2=  109631 LenP2D=  253792.
 LDataN:  DoStor=T MaxTD1= 7 Len=  274
 Number of processors reduced to  10 by ecpmxn.
 NBasis=  1368 RedAO= T EigKep=  4.00D-05  NBF=  1368
 NBsUse=  1368 1.00D-06 EigRej= -1.00D+00 NBFU=  1368
 Defaulting to unpruned grid for atomic number  44.
 ExpMin= 1.60D-02 ExpMax= 3.12D+05 ExpMxC= 9.87D+02 IAcc=3 IRadAn=         5 AccDes= 0.00D+00
 Harris functional with IExCor= 1009 and IRadAn=       5 diagonalized for initial guess.
 HarFok:  IExCor= 1009 AccDes= 0.00D+00 IRadAn=         5 IDoV= 1 UseB2=F ITyADJ=14
 ICtDFT=  3500011 ScaDFX=  1.000000  1.000000  1.000000  1.000000
 Defaulting to unpruned grid for atomic number  44.
 FoFCou: FMM=F IPFlag=           0 FMFlag=      100000 FMFlg1=        2001
         NFxFlg=           0 DoJE=T BraDBF=F KetDBF=T FulRan=T
         wScrn=  0.000000 ICntrl=       500 IOpCl=  0 I1Cent=   200000004 NGrid=           0
         NMat0=    1 NMatS0=      1 NMatT0=    0 NMatD0=    1 NMtDS0=    0 NMtDT0=    0
 Petite list used in FoFCou.
 Initial guess <Sx>= 0.0000 <Sy>= 0.0000 <Sz>= 1.0000 <S**2>= 2.0000 S= 1.0000
 Requested convergence on RMS density matrix=1.00D-08 within 128 cycles.
 Requested convergence on MAX density matrix=1.00D-06.
 Requested convergence on             energy=1.00D-06.
 No special actions if energy rises.
 Defaulting to unpruned grid for atomic number  44.
 Defaulting to unpruned grid for atomic number  44.
 Defaulting to unpruned grid for atomic number  44.
 Defaulting to unpruned grid for atomic number  44.
 Defaulting to unpruned grid for atomic number  44.
 Defaulting to unpruned grid for atomic number  44.
 Defaulting to unpruned grid for atomic number  44.
 Defaulting to unpruned grid for atomic number  44.
 Defaulting to unpruned grid for atomic number  44.
 Defaulting to unpruned grid for atomic number  44.
 Defaulting to unpruned grid for atomic number  44.
 Defaulting to unpruned grid for atomic number  44.
 Defaulting to unpruned grid for atomic number  44.
 Defaulting to unpruned grid for atomic number  44.
 Defaulting to unpruned grid for atomic number  44.
 Defaulting to unpruned grid for atomic number  44.
 Defaulting to unpruned grid for atomic number  44.
 Defaulting to unpruned grid for atomic number  44.
 Defaulting to unpruned grid for atomic number  44.
 Defaulting to unpruned grid for atomic number  44.
 Inv3:  Mode=1 IEnd=    55006572.
 Iteration    1 A*A^-1 deviation from unit magnitude is 1.21D-14 for   1067.
 Iteration    1 A*A^-1 deviation from orthogonality  is 3.72D-15 for   3333   1280.
 Iteration    1 A^-1*A deviation from unit magnitude is 1.21D-14 for   1067.
 Iteration    1 A^-1*A deviation from orthogonality  is 1.15D-14 for   3393   3364.
 Restarting incremental Fock formation.
 Error on total polarization charges =  0.07959
 SCF Done:  E(UPBE1PBE) =  -1630.03490337     A.U. after   26 cycles
            NFock= 26  Conv=0.20D-08     -V/T= 2.0449
 <Sx>= 0.0000 <Sy>= 0.0000 <Sz>= 1.0000 <S**2>= 2.0093 S= 1.0031
 <L.S>= 0.000000000000E+00
 SMD-CDS (non-electrostatic) energy       (kcal/mol) =      10.25
 (included in total energy above)
 Annihilation of the first spin contaminant:
 S**2 before annihilation     2.0093,   after     2.0000

 **********************************************************************

            Population analysis using the SCF density.

 **********************************************************************

 Orbital symmetries:
 Alpha Orbitals:
       Occupied  (A) (A) (A) (A) (A) (A) (A) (A) (A) (A) (A) (A)
                 (A) (A) (A) (A) (A) (A) (A) (A) (A) (A) (A) (A)
                 (A) (A) (A) (A) (A) (A) (A) (A) (A) (A) (A) (A)
                 (A) (A) (A) (A) (A) (A) (A) (A) (A) (A) (A) (A)
                 (A) (A) (A) (A) (A) (A) (A) (A) (A) (A) (A) (A)
                 (A) (A) (A) (A) (A) (A) (A) (A) (A) (A) (A) (A)
                 (A) (A) (A) (A) (A) (A) (A) (A) (A) (A) (A) (A)
                 (A) (A) (A) (A) (A) (A) (A) (A) (A) (A) (A) (A)
                 (A) (A) (A) (A) (A) (A) (A) (A) (A) (A) (A) (A)
                 (A) (A) (A) (A) (A) (A) (A) (A) (A) (A)
       Virtual   (A) (A) (A) (A) (A) (A) (A) (A) (A) (A) (A) (A)
                 (A) (A) (A) (A) (A) (A) (A) (A) (A) (A) (A) (A)
                 (A) (A) (A) (A) (A) (A) (A) (A) (A) (A) (A) (A)
                 (A) (A) (A) (A) (A) (A) (A) (A) (A) (A) (A) (A)
                 (A) (A) (A) (A) (A) (A) (A) (A) (A) (A) (A) (A)
                 (A) (A) (A) (A) (A) (A) (A) (A) (A) (A) (A) (A)
                 (A) (A) (A) (A) (A) (A) (A) (A) (A) (A) (A) (A)
                 (A) (A) (A) (A) (A) (A) (A) (A) (A) (A) (A) (A)
                 (A) (A) (A) (A) (A) (A) (A) (A) (A) (A) (A) (A)
                 (A) (A) (A) (A) (A) (A) (A) (A) (A) (A) (A) (A)
                 (A) (A) (A) (A) (A) (A) (A) (A) (A) (A) (A) (A)
                 (A) (A) (A) (A) (A) (A) (A) (A) (A) (A) (A) (A)
                 (A) (A) (A) (A) (A) (A) (A) (A) (A) (A) (A) (A)
                 (A) (A) (A) (A) (A) (A) (A) (A) (A) (A) (A) (A)
                 (A) (A) (A) (A) (A) (A) (A) (A) (A) (A) (A) (A)
                 (A) (A) (A) (A) (A) (A) (A) (A) (A) (A) (A) (A)
                 (A) (A) (A) (A) (A) (A) (A) (A) (A) (A) (A) (A)
                 (A) (A) (A) (A) (A) (A) (A) (A) (A) (A) (A) (A)
                 (A) (A) (A) (A) (A) (A) (A) (A) (A) (A) (A) (A)
                 (A) (A) (A) (A) (A) (A) (A) (A) (A) (A) (A) (A)
                 (A) (A) (A) (A) (A) (A) (A) (A) (A) (A) (A) (A)
                 (A) (A) (A) (A) (A) (A) (A) (A) (A) (A) (A) (A)
                 (A) (A) (A) (A) (A) (A) (A) (A) (A) (A) (A) (A)
                 (A) (A) (A) (A) (A) (A) (A) (A) (A) (A) (A) (A)
                 (A) (A) (A) (A) (A) (A) (A) (A) (A) (A) (A) (A)
                 (A) (A) (A) (A) (A) (A) (A) (A) (A) (A) (A) (A)
                 (A) (A) (A) (A) (A) (A) (A) (A) (A) (A) (A) (A)
                 (A) (A) (A) (A) (A) (A) (A) (A) (A) (A) (A) (A)
                 (A) (A) (A) (A) (A) (A) (A) (A) (A) (A) (A) (A)
                 (A) (A) (A) (A) (A) (A) (A) (A) (A) (A) (A) (A)
                 (A) (A) (A) (A) (A) (A) (A) (A) (A) (A) (A) (A)
                 (A) (A) (A) (A) (A) (A) (A) (A) (A) (A) (A) (A)
                 (A) (A) (A) (A) (A) (A) (A) (A) (A) (A) (A) (A)
                 (A) (A) (A) (A) (A) (A) (A) (A) (A) (A) (A) (A)
                 (A) (A) (A) (A) (A) (A) (A) (A) (A) (A) (A) (A)
                 (A) (A) (A) (A) (A) (A) (A) (A) (A) (A) (A) (A)
                 (A) (A) (A) (A) (A) (A) (A) (A) (A) (A) (A) (A)
                 (A) (A) (A) (A) (A) (A) (A) (A) (A) (A) (A) (A)
                 (A) (A) (A) (A) (A) (A) (A) (A) (A) (A) (A) (A)
                 (A) (A) (A) (A) (A) (A) (A) (A) (A) (A) (A) (A)
                 (A) (A) (A) (A) (A) (A) (A) (A) (A) (A) (A) (A)
                 (A) (A) (A) (A) (A) (A) (A) (A) (A) (A) (A) (A)
                 (A) (A) (A) (A) (A) (A) (A) (A) (A) (A) (A) (A)
                 (A) (A) (A) (A) (A) (A) (A) (A) (A) (A) (A) (A)
                 (A) (A) (A) (A) (A) (A) (A) (A) (A) (A) (A) (A)
                 (A) (A) (A) (A) (A) (A) (A) (A) (A) (A) (A) (A)
                 (A) (A) (A) (A) (A) (A) (A) (A) (A) (A) (A) (A)
                 (A) (A) (A) (A) (A) (A) (A) (A) (A) (A) (A) (A)
                 (A) (A) (A) (A) (A) (A) (A) (A) (A) (A) (A) (A)
                 (A) (A) (A) (A) (A) (A) (A) (A) (A) (A) (A) (A)
                 (A) (A) (A) (A) (A) (A) (A) (A) (A) (A) (A) (A)
                 (A) (A) (A) (A) (A) (A) (A) (A) (A) (A) (A) (A)
                 (A) (A) (A) (A) (A) (A) (A) (A) (A) (A) (A) (A)
                 (A) (A) (A) (A) (A) (A) (A) (A) (A) (A) (A) (A)
                 (A) (A) (A) (A) (A) (A) (A) (A) (A) (A) (A) (A)
                 (A) (A) (A) (A) (A) (A) (A) (A) (A) (A) (A) (A)
                 (A) (A) (A) (A) (A) (A) (A) (A) (A) (A) (A) (A)
                 (A) (A) (A) (A) (A) (A) (A) (A) (A) (A) (A) (A)
                 (A) (A) (A) (A) (A) (A) (A) (A) (A) (A) (A) (A)
                 (A) (A) (A) (A) (A) (A) (A) (A) (A) (A) (A) (A)
                 (A) (A) (A) (A) (A) (A) (A) (A) (A) (A) (A) (A)
                 (A) (A) (A) (A) (A) (A) (A) (A) (A) (A) (A) (A)
                 (A) (A) (A) (A) (A) (A) (A) (A) (A) (A) (A) (A)
                 (A) (A) (A) (A) (A) (A) (A) (A) (A) (A) (A) (A)
                 (A) (A) (A) (A) (A) (A) (A) (A) (A) (A) (A) (A)
                 (A) (A) (A) (A) (A) (A) (A) (A) (A) (A) (A) (A)
                 (A) (A) (A) (A) (A) (A) (A) (A) (A) (A) (A) (A)
                 (A) (A) (A) (A) (A) (A) (A) (A) (A) (A) (A) (A)
                 (A) (A) (A) (A) (A) (A) (A) (A) (A) (A) (A) (A)
                 (A) (A) (A) (A) (A) (A) (A) (A) (A) (A) (A) (A)
                 (A) (A) (A) (A) (A) (A) (A) (A) (A) (A) (A) (A)
                 (A) (A) (A) (A) (A) (A) (A) (A) (A) (A) (A) (A)
                 (A) (A) (A) (A) (A) (A) (A) (A) (A) (A) (A) (A)
                 (A) (A) (A) (A) (A) (A) (A) (A) (A) (A) (A) (A)
                 (A) (A) (A) (A) (A) (A) (A) (A) (A) (A) (A) (A)
                 (A) (A) (A) (A) (A) (A) (A) (A) (A) (A) (A) (A)
                 (A) (A) (A) (A) (A) (A) (A) (A) (A) (A) (A) (A)
                 (A) (A) (A) (A) (A) (A) (A) (A) (A) (A) (A) (A)
                 (A) (A) (A) (A) (A) (A) (A) (A) (A) (A) (A) (A)
                 (A) (A) (A) (A) (A) (A) (A) (A) (A) (A) (A) (A)
                 (A) (A) (A) (A) (A) (A) (A) (A) (A) (A) (A) (A)
                 (A) (A) (A) (A) (A) (A) (A) (A) (A) (A) (A) (A)
                 (A) (A) (A) (A) (A) (A) (A) (A) (A) (A) (A) (A)
                 (A) (A) (A) (A) (A) (A) (A) (A) (A) (A) (A) (A)
                 (A) (A) (A) (A) (A) (A) (A) (A) (A) (A) (A) (A)
                 (A) (A) (A) (A) (A) (A) (A) (A) (A) (A) (A) (A)
                 (A) (A) (A) (A) (A) (A) (A) (A) (A) (A) (A) (A)
                 (A) (A) (A) (A) (A) (A) (A) (A) (A) (A) (A) (A)
                 (A) (A) (A) (A) (A) (A) (A) (A) (A) (A) (A) (A)
                 (A) (A) (A) (A) (A) (A) (A) (A) (A) (A) (A) (A)
                 (A) (A) (A) (A) (A) (A) (A) (A) (A) (A) (A) (A)
                 (A) (A) (A) (A) (A) (A) (A) (A) (A) (A) (A) (A)
                 (A) (A) (A) (A) (A) (A) (A) (A) (A) (A) (A) (A)
                 (A) (A) (A) (A) (A) (A) (A) (A) (A) (A) (A) (A)
                 (A) (A) (A) (A) (A) (A) (A) (A) (A) (A) (A) (A)
                 (A) (A) (A) (A) (A) (A) (A) (A) (A) (A) (A) (A)
                 (A) (A) (A) (A) (A) (A) (A) (A) (A) (A) (A) (A)
                 (A) (A) (A) (A) (A) (A) (A) (A) (A) (A) (A) (A)
                 (A) (A) (A) (A) (A) (A) (A) (A) (A) (A) (A) (A)
                 (A) (A) (A) (A) (A) (A) (A) (A) (A) (A) (A) (A)
                 (A) (A) (A) (A) (A) (A) (A) (A) (A) (A) (A) (A)
                 (A) (A) (A) (A) (A) (A) (A) (A) (A) (A) (A) (A)
                 (A) (A) (A) (A) (A) (A) (A) (A) (A) (A) (A) (A)
                 (A) (A) (A) (A) (A) (A) (A) (A) (A) (A) (A) (A)
                 (A) (A)
 Beta  Orbitals:
       Occupied  (A) (A) (A) (A) (A) (A) (A) (A) (A) (A) (A) (A)
                 (A) (A) (A) (A) (A) (A) (A) (A) (A) (A) (A) (A)
                 (A) (A) (A) (A) (A) (A) (A) (A) (A) (A) (A) (A)
                 (A) (A) (A) (A) (A) (A) (A) (A) (A) (A) (A) (A)
                 (A) (A) (A) (A) (A) (A) (A) (A) (A) (A) (A) (A)
                 (A) (A) (A) (A) (A) (A) (A) (A) (A) (A) (A) (A)
                 (A) (A) (A) (A) (A) (A) (A) (A) (A) (A) (A) (A)
                 (A) (A) (A) (A) (A) (A) (A) (A) (A) (A) (A) (A)
                 (A) (A) (A) (A) (A) (A) (A) (A) (A) (A) (A) (A)
                 (A) (A) (A) (A) (A) (A) (A) (A)
       Virtual   (A) (A) (A) (A) (A) (A) (A) (A) (A) (A) (A) (A)
                 (A) (A) (A) (A) (A) (A) (A) (A) (A) (A) (A) (A)
                 (A) (A) (A) (A) (A) (A) (A) (A) (A) (A) (A) (A)
                 (A) (A) (A) (A) (A) (A) (A) (A) (A) (A) (A) (A)
                 (A) (A) (A) (A) (A) (A) (A) (A) (A) (A) (A) (A)
                 (A) (A) (A) (A) (A) (A) (A) (A) (A) (A) (A) (A)
                 (A) (A) (A) (A) (A) (A) (A) (A) (A) (A) (A) (A)
                 (A) (A) (A) (A) (A) (A) (A) (A) (A) (A) (A) (A)
                 (A) (A) (A) (A) (A) (A) (A) (A) (A) (A) (A) (A)
                 (A) (A) (A) (A) (A) (A) (A) (A) (A) (A) (A) (A)
                 (A) (A) (A) (A) (A) (A) (A) (A) (A) (A) (A) (A)
                 (A) (A) (A) (A) (A) (A) (A) (A) (A) (A) (A) (A)
                 (A) (A) (A) (A) (A) (A) (A) (A) (A) (A) (A) (A)
                 (A) (A) (A) (A) (A) (A) (A) (A) (A) (A) (A) (A)
                 (A) (A) (A) (A) (A) (A) (A) (A) (A) (A) (A) (A)
                 (A) (A) (A) (A) (A) (A) (A) (A) (A) (A) (A) (A)
                 (A) (A) (A) (A) (A) (A) (A) (A) (A) (A) (A) (A)
                 (A) (A) (A) (A) (A) (A) (A) (A) (A) (A) (A) (A)
                 (A) (A) (A) (A) (A) (A) (A) (A) (A) (A) (A) (A)
                 (A) (A) (A) (A) (A) (A) (A) (A) (A) (A) (A) (A)
                 (A) (A) (A) (A) (A) (A) (A) (A) (A) (A) (A) (A)
                 (A) (A) (A) (A) (A) (A) (A) (A) (A) (A) (A) (A)
                 (A) (A) (A) (A) (A) (A) (A) (A) (A) (A) (A) (A)
                 (A) (A) (A) (A) (A) (A) (A) (A) (A) (A) (A) (A)
                 (A) (A) (A) (A) (A) (A) (A) (A) (A) (A) (A) (A)
                 (A) (A) (A) (A) (A) (A) (A) (A) (A) (A) (A) (A)
                 (A) (A) (A) (A) (A) (A) (A) (A) (A) (A) (A) (A)
                 (A) (A) (A) (A) (A) (A) (A) (A) (A) (A) (A) (A)
                 (A) (A) (A) (A) (A) (A) (A) (A) (A) (A) (A) (A)
                 (A) (A) (A) (A) (A) (A) (A) (A) (A) (A) (A) (A)
                 (A) (A) (A) (A) (A) (A) (A) (A) (A) (A) (A) (A)
                 (A) (A) (A) (A) (A) (A) (A) (A) (A) (A) (A) (A)
                 (A) (A) (A) (A) (A) (A) (A) (A) (A) (A) (A) (A)
                 (A) (A) (A) (A) (A) (A) (A) (A) (A) (A) (A) (A)
                 (A) (A) (A) (A) (A) (A) (A) (A) (A) (A) (A) (A)
                 (A) (A) (A) (A) (A) (A) (A) (A) (A) (A) (A) (A)
                 (A) (A) (A) (A) (A) (A) (A) (A) (A) (A) (A) (A)
                 (A) (A) (A) (A) (A) (A) (A) (A) (A) (A) (A) (A)
                 (A) (A) (A) (A) (A) (A) (A) (A) (A) (A) (A) (A)
                 (A) (A) (A) (A) (A) (A) (A) (A) (A) (A) (A) (A)
                 (A) (A) (A) (A) (A) (A) (A) (A) (A) (A) (A) (A)
                 (A) (A) (A) (A) (A) (A) (A) (A) (A) (A) (A) (A)
                 (A) (A) (A) (A) (A) (A) (A) (A) (A) (A) (A) (A)
                 (A) (A) (A) (A) (A) (A) (A) (A) (A) (A) (A) (A)
                 (A) (A) (A) (A) (A) (A) (A) (A) (A) (A) (A) (A)
                 (A) (A) (A) (A) (A) (A) (A) (A) (A) (A) (A) (A)
                 (A) (A) (A) (A) (A) (A) (A) (A) (A) (A) (A) (A)
                 (A) (A) (A) (A) (A) (A) (A) (A) (A) (A) (A) (A)
                 (A) (A) (A) (A) (A) (A) (A) (A) (A) (A) (A) (A)
                 (A) (A) (A) (A) (A) (A) (A) (A) (A) (A) (A) (A)
                 (A) (A) (A) (A) (A) (A) (A) (A) (A) (A) (A) (A)
                 (A) (A) (A) (A) (A) (A) (A) (A) (A) (A) (A) (A)
                 (A) (A) (A) (A) (A) (A) (A) (A) (A) (A) (A) (A)
                 (A) (A) (A) (A) (A) (A) (A) (A) (A) (A) (A) (A)
                 (A) (A) (A) (A) (A) (A) (A) (A) (A) (A) (A) (A)
                 (A) (A) (A) (A) (A) (A) (A) (A) (A) (A) (A) (A)
                 (A) (A) (A) (A) (A) (A) (A) (A) (A) (A) (A) (A)
                 (A) (A) (A) (A) (A) (A) (A) (A) (A) (A) (A) (A)
                 (A) (A) (A) (A) (A) (A) (A) (A) (A) (A) (A) (A)
                 (A) (A) (A) (A) (A) (A) (A) (A) (A) (A) (A) (A)
                 (A) (A) (A) (A) (A) (A) (A) (A) (A) (A) (A) (A)
                 (A) (A) (A) (A) (A) (A) (A) (A) (A) (A) (A) (A)
                 (A) (A) (A) (A) (A) (A) (A) (A) (A) (A) (A) (A)
                 (A) (A) (A) (A) (A) (A) (A) (A) (A) (A) (A) (A)
                 (A) (A) (A) (A) (A) (A) (A) (A) (A) (A) (A) (A)
                 (A) (A) (A) (A) (A) (A) (A) (A) (A) (A) (A) (A)
                 (A) (A) (A) (A) (A) (A) (A) (A) (A) (A) (A) (A)
                 (A) (A) (A) (A) (A) (A) (A) (A) (A) (A) (A) (A)
                 (A) (A) (A) (A) (A) (A) (A) (A) (A) (A) (A) (A)
                 (A) (A) (A) (A) (A) (A) (A) (A) (A) (A) (A) (A)
                 (A) (A) (A) (A) (A) (A) (A) (A) (A) (A) (A) (A)
                 (A) (A) (A) (A) (A) (A) (A) (A) (A) (A) (A) (A)
                 (A) (A) (A) (A) (A) (A) (A) (A) (A) (A) (A) (A)
                 (A) (A) (A) (A) (A) (A) (A) (A) (A) (A) (A) (A)
                 (A) (A) (A) (A) (A) (A) (A) (A) (A) (A) (A) (A)
                 (A) (A) (A) (A) (A) (A) (A) (A) (A) (A) (A) (A)
                 (A) (A) (A) (A) (A) (A) (A) (A) (A) (A) (A) (A)
                 (A) (A) (A) (A) (A) (A) (A) (A) (A) (A) (A) (A)
                 (A) (A) (A) (A) (A) (A) (A) (A) (A) (A) (A) (A)
                 (A) (A) (A) (A) (A) (A) (A) (A) (A) (A) (A) (A)
                 (A) (A) (A) (A) (A) (A) (A) (A) (A) (A) (A) (A)
                 (A) (A) (A) (A) (A) (A) (A) (A) (A) (A) (A) (A)
                 (A) (A) (A) (A) (A) (A) (A) (A) (A) (A) (A) (A)
                 (A) (A) (A) (A) (A) (A) (A) (A) (A) (A) (A) (A)
                 (A) (A) (A) (A) (A) (A) (A) (A) (A) (A) (A) (A)
                 (A) (A) (A) (A) (A) (A) (A) (A) (A) (A) (A) (A)
                 (A) (A) (A) (A) (A) (A) (A) (A) (A) (A) (A) (A)
                 (A) (A) (A) (A) (A) (A) (A) (A) (A) (A) (A) (A)
                 (A) (A) (A) (A) (A) (A) (A) (A) (A) (A) (A) (A)
                 (A) (A) (A) (A) (A) (A) (A) (A) (A) (A) (A) (A)
                 (A) (A) (A) (A) (A) (A) (A) (A) (A) (A) (A) (A)
                 (A) (A) (A) (A) (A) (A) (A) (A) (A) (A) (A) (A)
                 (A) (A) (A) (A) (A) (A) (A) (A) (A) (A) (A) (A)
                 (A) (A) (A) (A) (A) (A) (A) (A) (A) (A) (A) (A)
                 (A) (A) (A) (A) (A) (A) (A) (A) (A) (A) (A) (A)
                 (A) (A) (A) (A) (A) (A) (A) (A) (A) (A) (A) (A)
                 (A) (A) (A) (A) (A) (A) (A) (A) (A) (A) (A) (A)
                 (A) (A) (A) (A) (A) (A) (A) (A) (A) (A) (A) (A)
                 (A) (A) (A) (A) (A) (A) (A) (A) (A) (A) (A) (A)
                 (A) (A) (A) (A) (A) (A) (A) (A) (A) (A) (A) (A)
                 (A) (A) (A) (A) (A) (A) (A) (A) (A) (A) (A) (A)
                 (A) (A) (A) (A) (A) (A) (A) (A) (A) (A) (A) (A)
                 (A) (A) (A) (A) (A) (A) (A) (A) (A) (A) (A) (A)
                 (A) (A) (A) (A) (A) (A) (A) (A) (A) (A) (A) (A)
                 (A) (A) (A) (A)
 The electronic state is 3-A.
 Alpha  occ. eigenvalues --  -77.23776 -19.36156 -19.36098 -19.21610 -19.18337
 Alpha  occ. eigenvalues --  -14.42261 -14.42103 -10.28471 -10.28118 -10.27810
 Alpha  occ. eigenvalues --  -10.25395 -10.24952 -10.24606 -10.24445 -10.24116
 Alpha  occ. eigenvalues --  -10.23929 -10.23818 -10.23735 -10.22913 -10.20804
 Alpha  occ. eigenvalues --  -10.20551 -10.20532 -10.20482 -10.20452 -10.20345
 Alpha  occ. eigenvalues --  -10.20341 -10.20142  -6.61157  -4.74866  -4.74746
 Alpha  occ. eigenvalues --   -4.74475  -2.97672  -1.82979  -1.81434  -1.78381
 Alpha  occ. eigenvalues --   -1.34262  -1.09232  -1.00914  -1.00049  -0.96365
 Alpha  occ. eigenvalues --   -0.85910  -0.84502  -0.83493  -0.82842  -0.82155
 Alpha  occ. eigenvalues --   -0.77826  -0.76794  -0.73710  -0.70244  -0.70184
 Alpha  occ. eigenvalues --   -0.69701  -0.69207  -0.69133  -0.66093  -0.65251
 Alpha  occ. eigenvalues --   -0.62837  -0.61343  -0.58407  -0.58345  -0.57646
 Alpha  occ. eigenvalues --   -0.56654  -0.55548  -0.54602  -0.52900  -0.52608
 Alpha  occ. eigenvalues --   -0.52140  -0.51129  -0.50239  -0.49609  -0.48017
 Alpha  occ. eigenvalues --   -0.47378  -0.45933  -0.45363  -0.45183  -0.45002
 Alpha  occ. eigenvalues --   -0.44565  -0.44156  -0.43756  -0.43339  -0.42818
 Alpha  occ. eigenvalues --   -0.42092  -0.41902  -0.41654  -0.41224  -0.41008
 Alpha  occ. eigenvalues --   -0.40398  -0.40029  -0.39581  -0.39116  -0.38929
 Alpha  occ. eigenvalues --   -0.38515  -0.38063  -0.37936  -0.37740  -0.36658
 Alpha  occ. eigenvalues --   -0.36266  -0.36210  -0.35818  -0.34893  -0.34797
 Alpha  occ. eigenvalues --   -0.34531  -0.34234  -0.33261  -0.32885  -0.32154
 Alpha  occ. eigenvalues --   -0.31997  -0.31600  -0.31536  -0.31485  -0.30922
 Alpha  occ. eigenvalues --   -0.30475  -0.28844  -0.26678  -0.26036  -0.21306
 Alpha  occ. eigenvalues --   -0.19304  -0.17683  -0.15612
 Alpha virt. eigenvalues --   -0.04699  -0.01874   0.00905   0.00980   0.02497
 Alpha virt. eigenvalues --    0.03083   0.03664   0.04226   0.06208   0.06550
 Alpha virt. eigenvalues --    0.07651   0.07769   0.07905   0.08120   0.08993
 Alpha virt. eigenvalues --    0.09155   0.09395   0.09901   0.10134   0.10369
 Alpha virt. eigenvalues --    0.10644   0.11175   0.11486   0.11799   0.12347
 Alpha virt. eigenvalues --    0.12423   0.12901   0.13043   0.13324   0.13549
 Alpha virt. eigenvalues --    0.13779   0.14311   0.14641   0.14726   0.15296
 Alpha virt. eigenvalues --    0.15594   0.15853   0.16093   0.16413   0.16638
 Alpha virt. eigenvalues --    0.16864   0.17446   0.17530   0.17819   0.17883
 Alpha virt. eigenvalues --    0.18561   0.18762   0.18923   0.19408   0.19740
 Alpha virt. eigenvalues --    0.19772   0.20169   0.20437   0.20580   0.20920
 Alpha virt. eigenvalues --    0.21139   0.21251   0.21757   0.22067   0.22724
 Alpha virt. eigenvalues --    0.23065   0.23547   0.24242   0.24434   0.24673
 Alpha virt. eigenvalues --    0.25010   0.25682   0.26135   0.26901   0.27081
 Alpha virt. eigenvalues --    0.27925   0.28314   0.28655   0.28871   0.29378
 Alpha virt. eigenvalues --    0.29604   0.30063   0.30682   0.30913   0.31508
 Alpha virt. eigenvalues --    0.31900   0.32157   0.32362   0.32605   0.33594
 Alpha virt. eigenvalues --    0.33780   0.34105   0.34414   0.34676   0.35069
 Alpha virt. eigenvalues --    0.35535   0.36067   0.36340   0.36983   0.37233
 Alpha virt. eigenvalues --    0.37730   0.38370   0.38924   0.39057   0.39726
 Alpha virt. eigenvalues --    0.39857   0.40291   0.40683   0.41141   0.41465
 Alpha virt. eigenvalues --    0.41685   0.42378   0.42417   0.42813   0.43335
 Alpha virt. eigenvalues --    0.43582   0.44065   0.44292   0.44400   0.44811
 Alpha virt. eigenvalues --    0.45084   0.45215   0.45329   0.45703   0.46114
 Alpha virt. eigenvalues --    0.46221   0.46560   0.47028   0.47184   0.47289
 Alpha virt. eigenvalues --    0.47787   0.47909   0.48187   0.48469   0.48703
 Alpha virt. eigenvalues --    0.49052   0.49469   0.49605   0.49785   0.50172
 Alpha virt. eigenvalues --    0.50331   0.50857   0.51016   0.51265   0.51817
 Alpha virt. eigenvalues --    0.51927   0.52139   0.52467   0.52746   0.52955
 Alpha virt. eigenvalues --    0.53224   0.53544   0.53751   0.54340   0.54416
 Alpha virt. eigenvalues --    0.54737   0.55358   0.55414   0.55652   0.56081
 Alpha virt. eigenvalues --    0.56196   0.56414   0.56486   0.57162   0.57453
 Alpha virt. eigenvalues --    0.57837   0.58048   0.58098   0.58461   0.58941
 Alpha virt. eigenvalues --    0.59138   0.59316   0.59755   0.60165   0.60605
 Alpha virt. eigenvalues --    0.60777   0.61400   0.62001   0.62390   0.62674
 Alpha virt. eigenvalues --    0.62991   0.63507   0.63917   0.64369   0.64722
 Alpha virt. eigenvalues --    0.65192   0.65411   0.65951   0.66567   0.66661
 Alpha virt. eigenvalues --    0.67116   0.67466   0.67951   0.69104   0.69390
 Alpha virt. eigenvalues --    0.69801   0.70072   0.70543   0.71201   0.71648
 Alpha virt. eigenvalues --    0.72305   0.72810   0.73099   0.73646   0.73879
 Alpha virt. eigenvalues --    0.74749   0.74952   0.75369   0.75611   0.75680
 Alpha virt. eigenvalues --    0.76188   0.76831   0.77820   0.78438   0.78514
 Alpha virt. eigenvalues --    0.78899   0.79381   0.79716   0.80062   0.80569
 Alpha virt. eigenvalues --    0.80731   0.81816   0.82350   0.82721   0.83510
 Alpha virt. eigenvalues --    0.83573   0.84276   0.84481   0.85115   0.85488
 Alpha virt. eigenvalues --    0.85666   0.86159   0.86619   0.87135   0.87330
 Alpha virt. eigenvalues --    0.88027   0.88874   0.88949   0.89335   0.89450
 Alpha virt. eigenvalues --    0.90307   0.90532   0.91276   0.91752   0.92466
 Alpha virt. eigenvalues --    0.92800   0.93112   0.93513   0.93719   0.94058
 Alpha virt. eigenvalues --    0.94614   0.94927   0.95177   0.95629   0.96052
 Alpha virt. eigenvalues --    0.96302   0.96674   0.97498   0.98054   0.98369
 Alpha virt. eigenvalues --    0.98719   0.99099   0.99463   0.99754   0.99861
 Alpha virt. eigenvalues --    1.00670   1.00970   1.01212   1.01581   1.01927
 Alpha virt. eigenvalues --    1.02337   1.02548   1.03005   1.03310   1.03512
 Alpha virt. eigenvalues --    1.03986   1.04434   1.05067   1.05477   1.06168
 Alpha virt. eigenvalues --    1.06464   1.06926   1.07193   1.07470   1.08309
 Alpha virt. eigenvalues --    1.08954   1.09060   1.09401   1.09745   1.10284
 Alpha virt. eigenvalues --    1.10503   1.10795   1.11578   1.11808   1.12463
 Alpha virt. eigenvalues --    1.12567   1.13243   1.13463   1.13840   1.14577
 Alpha virt. eigenvalues --    1.14651   1.15300   1.15602   1.15779   1.16210
 Alpha virt. eigenvalues --    1.16567   1.17042   1.17355   1.17798   1.18644
 Alpha virt. eigenvalues --    1.18701   1.18973   1.19285   1.19689   1.20210
 Alpha virt. eigenvalues --    1.20402   1.20851   1.21362   1.21484   1.21768
 Alpha virt. eigenvalues --    1.22558   1.22792   1.23143   1.23709   1.23813
 Alpha virt. eigenvalues --    1.24180   1.24691   1.25209   1.25366   1.25698
 Alpha virt. eigenvalues --    1.25927   1.26633   1.26988   1.27186   1.27638
 Alpha virt. eigenvalues --    1.28028   1.28048   1.28438   1.28489   1.29171
 Alpha virt. eigenvalues --    1.29336   1.29637   1.29931   1.30184   1.30668
 Alpha virt. eigenvalues --    1.31223   1.31361   1.31640   1.32127   1.32431
 Alpha virt. eigenvalues --    1.32661   1.32891   1.32979   1.33408   1.33963
 Alpha virt. eigenvalues --    1.34457   1.34545   1.34655   1.34999   1.35611
 Alpha virt. eigenvalues --    1.35792   1.36097   1.36591   1.36825   1.37695
 Alpha virt. eigenvalues --    1.37783   1.37902   1.38198   1.38536   1.38667
 Alpha virt. eigenvalues --    1.39029   1.39657   1.39945   1.40327   1.40951
 Alpha virt. eigenvalues --    1.41308   1.41666   1.42313   1.42751   1.42854
 Alpha virt. eigenvalues --    1.43332   1.43769   1.44200   1.44884   1.45336
 Alpha virt. eigenvalues --    1.45500   1.45982   1.46236   1.46823   1.47271
 Alpha virt. eigenvalues --    1.48082   1.48450   1.48635   1.49340   1.49501
 Alpha virt. eigenvalues --    1.50014   1.50557   1.51348   1.51632   1.52127
 Alpha virt. eigenvalues --    1.52318   1.52960   1.53409   1.54016   1.54654
 Alpha virt. eigenvalues --    1.55176   1.56013   1.56711   1.56869   1.57391
 Alpha virt. eigenvalues --    1.57554   1.57899   1.58443   1.59232   1.59743
 Alpha virt. eigenvalues --    1.59887   1.60387   1.60638   1.60845   1.61295
 Alpha virt. eigenvalues --    1.61478   1.61926   1.62402   1.62652   1.63368
 Alpha virt. eigenvalues --    1.63413   1.63820   1.64303   1.64730   1.65242
 Alpha virt. eigenvalues --    1.66080   1.66472   1.66839   1.67379   1.68209
 Alpha virt. eigenvalues --    1.69178   1.69599   1.70106   1.70339   1.71030
 Alpha virt. eigenvalues --    1.71450   1.72216   1.72626   1.73160   1.74287
 Alpha virt. eigenvalues --    1.74865   1.75592   1.76206   1.76479   1.77377
 Alpha virt. eigenvalues --    1.78905   1.79206   1.80073   1.80415   1.81187
 Alpha virt. eigenvalues --    1.83319   1.83682   1.84283   1.85298   1.87206
 Alpha virt. eigenvalues --    1.87900   1.88751   1.89980   1.91374   1.91637
 Alpha virt. eigenvalues --    1.92042   1.92717   1.93393   1.94366   1.95736
 Alpha virt. eigenvalues --    1.96053   1.97096   1.99142   1.99718   2.01356
 Alpha virt. eigenvalues --    2.03035   2.03293   2.04178   2.04781   2.05547
 Alpha virt. eigenvalues --    2.06897   2.09641   2.10339   2.10560   2.12293
 Alpha virt. eigenvalues --    2.13791   2.15043   2.16229   2.16534   2.19711
 Alpha virt. eigenvalues --    2.20440   2.20912   2.21231   2.21949   2.22728
 Alpha virt. eigenvalues --    2.24046   2.25012   2.26148   2.27284   2.28493
 Alpha virt. eigenvalues --    2.30115   2.31396   2.32391   2.33059   2.34162
 Alpha virt. eigenvalues --    2.34961   2.35583   2.36601   2.36766   2.37362
 Alpha virt. eigenvalues --    2.38372   2.38931   2.39226   2.40162   2.41057
 Alpha virt. eigenvalues --    2.42740   2.43057   2.43343   2.44055   2.44987
 Alpha virt. eigenvalues --    2.45414   2.46203   2.46759   2.47708   2.47985
 Alpha virt. eigenvalues --    2.49074   2.50277   2.50856   2.51386   2.51587
 Alpha virt. eigenvalues --    2.52098   2.52815   2.53286   2.54239   2.55075
 Alpha virt. eigenvalues --    2.55991   2.56816   2.57345   2.57616   2.57781
 Alpha virt. eigenvalues --    2.58234   2.58424   2.59816   2.59871   2.60521
 Alpha virt. eigenvalues --    2.60998   2.62117   2.62437   2.63053   2.63500
 Alpha virt. eigenvalues --    2.63985   2.64772   2.65176   2.65258   2.65745
 Alpha virt. eigenvalues --    2.66655   2.67099   2.67706   2.68462   2.69055
 Alpha virt. eigenvalues --    2.69170   2.69410   2.70306   2.70828   2.71164
 Alpha virt. eigenvalues --    2.71793   2.71981   2.72388   2.72613   2.72924
 Alpha virt. eigenvalues --    2.73992   2.74352   2.74930   2.75500   2.75995
 Alpha virt. eigenvalues --    2.76983   2.77302   2.77527   2.78167   2.78429
 Alpha virt. eigenvalues --    2.78933   2.79287   2.79825   2.80125   2.80486
 Alpha virt. eigenvalues --    2.80979   2.81400   2.81641   2.81736   2.82248
 Alpha virt. eigenvalues --    2.82485   2.83034   2.83485   2.83661   2.84181
 Alpha virt. eigenvalues --    2.84345   2.84896   2.85273   2.85861   2.86693
 Alpha virt. eigenvalues --    2.86842   2.87332   2.87642   2.88291   2.88923
 Alpha virt. eigenvalues --    2.89671   2.90170   2.90311   2.90893   2.91388
 Alpha virt. eigenvalues --    2.91568   2.92208   2.92787   2.93249   2.93642
 Alpha virt. eigenvalues --    2.94236   2.94260   2.94653   2.95164   2.95546
 Alpha virt. eigenvalues --    2.95985   2.96263   2.96668   2.97873   2.98947
 Alpha virt. eigenvalues --    2.99103   2.99813   3.00091   3.00327   3.00827
 Alpha virt. eigenvalues --    3.01338   3.01875   3.02103   3.02614   3.02920
 Alpha virt. eigenvalues --    3.03165   3.03626   3.03908   3.04118   3.04404
 Alpha virt. eigenvalues --    3.04803   3.05222   3.05371   3.05927   3.06553
 Alpha virt. eigenvalues --    3.07065   3.07308   3.07585   3.07833   3.08596
 Alpha virt. eigenvalues --    3.08692   3.08851   3.09115   3.09546   3.10188
 Alpha virt. eigenvalues --    3.10266   3.10690   3.11013   3.11238   3.11678
 Alpha virt. eigenvalues --    3.11954   3.12124   3.12562   3.12620   3.13179
 Alpha virt. eigenvalues --    3.13526   3.13624   3.14233   3.14293   3.14543
 Alpha virt. eigenvalues --    3.14739   3.15195   3.15480   3.15943   3.16072
 Alpha virt. eigenvalues --    3.16726   3.17090   3.17343   3.17700   3.18118
 Alpha virt. eigenvalues --    3.18504   3.19265   3.19415   3.20084   3.20436
 Alpha virt. eigenvalues --    3.20995   3.21134   3.21493   3.21955   3.22286
 Alpha virt. eigenvalues --    3.22844   3.23259   3.23426   3.24303   3.24455
 Alpha virt. eigenvalues --    3.24478   3.25011   3.25265   3.25759   3.26326
 Alpha virt. eigenvalues --    3.26424   3.26638   3.27328   3.27725   3.28383
 Alpha virt. eigenvalues --    3.28999   3.29538   3.30152   3.30295   3.30750
 Alpha virt. eigenvalues --    3.31347   3.31673   3.32149   3.32282   3.32774
 Alpha virt. eigenvalues --    3.33228   3.33635   3.34038   3.34285   3.34963
 Alpha virt. eigenvalues --    3.35510   3.35951   3.36193   3.36497   3.37241
 Alpha virt. eigenvalues --    3.37450   3.37990   3.38277   3.38819   3.38925
 Alpha virt. eigenvalues --    3.39190   3.40195   3.40317   3.41046   3.41109
 Alpha virt. eigenvalues --    3.41826   3.41963   3.42661   3.43314   3.43503
 Alpha virt. eigenvalues --    3.43829   3.44075   3.44372   3.45019   3.45369
 Alpha virt. eigenvalues --    3.45666   3.45949   3.46428   3.46605   3.46955
 Alpha virt. eigenvalues --    3.47239   3.47300   3.47664   3.48023   3.48811
 Alpha virt. eigenvalues --    3.49210   3.49468   3.49692   3.50191   3.50530
 Alpha virt. eigenvalues --    3.50785   3.51324   3.51651   3.51814   3.52433
 Alpha virt. eigenvalues --    3.52609   3.52840   3.53396   3.53661   3.54210
 Alpha virt. eigenvalues --    3.54916   3.55272   3.55338   3.56105   3.56524
 Alpha virt. eigenvalues --    3.57077   3.57411   3.57661   3.57945   3.58512
 Alpha virt. eigenvalues --    3.58843   3.59225   3.59749   3.60020   3.60661
 Alpha virt. eigenvalues --    3.60908   3.61226   3.61865   3.62256   3.62292
 Alpha virt. eigenvalues --    3.62747   3.62993   3.64056   3.64442   3.65829
 Alpha virt. eigenvalues --    3.66322   3.67042   3.67298   3.67647   3.68328
 Alpha virt. eigenvalues --    3.69291   3.69546   3.70162   3.70420   3.70769
 Alpha virt. eigenvalues --    3.71399   3.71836   3.72032   3.72758   3.73418
 Alpha virt. eigenvalues --    3.73610   3.73972   3.74912   3.75517   3.75865
 Alpha virt. eigenvalues --    3.76054   3.76501   3.76811   3.77362   3.77852
 Alpha virt. eigenvalues --    3.78349   3.78410   3.78822   3.79302   3.79490
 Alpha virt. eigenvalues --    3.79958   3.80137   3.80812   3.81440   3.81547
 Alpha virt. eigenvalues --    3.81818   3.83255   3.83490   3.84152   3.84575
 Alpha virt. eigenvalues --    3.85063   3.85655   3.86417   3.86555   3.87183
 Alpha virt. eigenvalues --    3.87578   3.87867   3.88228   3.89097   3.89187
 Alpha virt. eigenvalues --    3.89333   3.90567   3.91527   3.92003   3.92421
 Alpha virt. eigenvalues --    3.92805   3.93547   3.94277   3.94521   3.95129
 Alpha virt. eigenvalues --    3.95282   3.96016   3.96563   3.96642   3.96723
 Alpha virt. eigenvalues --    3.97478   3.97642   3.98097   3.98540   3.99260
 Alpha virt. eigenvalues --    3.99913   4.00804   4.01042   4.01150   4.01920
 Alpha virt. eigenvalues --    4.02461   4.02928   4.03613   4.04005   4.04602
 Alpha virt. eigenvalues --    4.04779   4.05316   4.05729   4.06093   4.06789
 Alpha virt. eigenvalues --    4.07075   4.07820   4.08149   4.08570   4.08777
 Alpha virt. eigenvalues --    4.09285   4.09707   4.10325   4.10509   4.10849
 Alpha virt. eigenvalues --    4.11197   4.11764   4.11886   4.12519   4.12901
 Alpha virt. eigenvalues --    4.13108   4.13289   4.13818   4.14164   4.14492
 Alpha virt. eigenvalues --    4.15382   4.15533   4.15966   4.16153   4.16769
 Alpha virt. eigenvalues --    4.16987   4.17605   4.18115   4.18596   4.19051
 Alpha virt. eigenvalues --    4.19407   4.19965   4.20084   4.20427   4.20882
 Alpha virt. eigenvalues --    4.21597   4.21747   4.22426   4.22971   4.23316
 Alpha virt. eigenvalues --    4.23804   4.24619   4.24791   4.25112   4.25661
 Alpha virt. eigenvalues --    4.25957   4.26196   4.26741   4.26869   4.27572
 Alpha virt. eigenvalues --    4.27830   4.28103   4.28638   4.29045   4.29569
 Alpha virt. eigenvalues --    4.29963   4.30317   4.30607   4.31023   4.31512
 Alpha virt. eigenvalues --    4.31704   4.32146   4.32422   4.32513   4.32904
 Alpha virt. eigenvalues --    4.33450   4.34037   4.34377   4.34719   4.34978
 Alpha virt. eigenvalues --    4.35668   4.36007   4.36499   4.36890   4.37556
 Alpha virt. eigenvalues --    4.37914   4.38227   4.38763   4.39339   4.39648
 Alpha virt. eigenvalues --    4.40131   4.41141   4.41535   4.41823   4.42244
 Alpha virt. eigenvalues --    4.42531   4.43748   4.44272   4.44758   4.44898
 Alpha virt. eigenvalues --    4.45755   4.46203   4.46442   4.47465   4.47946
 Alpha virt. eigenvalues --    4.48938   4.49559   4.50151   4.50732   4.51897
 Alpha virt. eigenvalues --    4.52895   4.53411   4.54861   4.55570   4.56021
 Alpha virt. eigenvalues --    4.56217   4.57002   4.57246   4.57862   4.58174
 Alpha virt. eigenvalues --    4.58594   4.58776   4.59749   4.61394   4.62312
 Alpha virt. eigenvalues --    4.63460   4.64990   4.65859   4.66822   4.67239
 Alpha virt. eigenvalues --    4.68049   4.69050   4.70014   4.70167   4.70775
 Alpha virt. eigenvalues --    4.71996   4.72605   4.73426   4.74059   4.74889
 Alpha virt. eigenvalues --    4.75621   4.76817   4.76989   4.77993   4.78755
 Alpha virt. eigenvalues --    4.79018   4.80157   4.80329   4.82379   4.82643
 Alpha virt. eigenvalues --    4.83199   4.83408   4.83625   4.84051   4.84492
 Alpha virt. eigenvalues --    4.85637   4.85739   4.86043   4.86582   4.86681
 Alpha virt. eigenvalues --    4.87026   4.87137   4.88253   4.88512   4.89053
 Alpha virt. eigenvalues --    4.89349   4.89794   4.89952   4.90466   4.90648
 Alpha virt. eigenvalues --    4.90797   4.91138   4.91394   4.92190   4.92966
 Alpha virt. eigenvalues --    4.93531   4.94518   4.95051   4.95677   4.95819
 Alpha virt. eigenvalues --    4.96010   4.96092   4.97022   4.97305   4.97543
 Alpha virt. eigenvalues --    4.97952   4.99608   5.00973   5.02796   5.03083
 Alpha virt. eigenvalues --    5.04343   5.05929   5.06370   5.07067   5.08429
 Alpha virt. eigenvalues --    5.08529   5.09382   5.09434   5.09955   5.10632
 Alpha virt. eigenvalues --    5.11110   5.13205   5.14392   5.14490   5.14918
 Alpha virt. eigenvalues --    5.15440   5.15698   5.15848   5.16461   5.16691
 Alpha virt. eigenvalues --    5.17462   5.18049   5.18578   5.19724   5.19942
 Alpha virt. eigenvalues --    5.21177   5.21297   5.21412   5.21943   5.22413
 Alpha virt. eigenvalues --    5.23148   5.24036   5.24344   5.24890   5.26045
 Alpha virt. eigenvalues --    5.26344   5.27070   5.27690   5.28173   5.29041
 Alpha virt. eigenvalues --    5.29480   5.29730   5.31332   5.33085   5.33472
 Alpha virt. eigenvalues --    5.33722   5.34642   5.35273   5.35405   5.35759
 Alpha virt. eigenvalues --    5.36256   5.37175   5.37970   5.38246   5.38574
 Alpha virt. eigenvalues --    5.38813   5.39513   5.40208   5.40320   5.41280
 Alpha virt. eigenvalues --    5.41564   5.41645   5.42075   5.42691   5.43572
 Alpha virt. eigenvalues --    5.43970   5.44593   5.45151   5.45953   5.47540
 Alpha virt. eigenvalues --    5.48086   5.49688   5.49857   5.50179   5.50988
 Alpha virt. eigenvalues --    5.51233   5.51551   5.52163   5.52698   5.54104
 Alpha virt. eigenvalues --    5.55598   5.55999   5.56634   5.57164   5.57996
 Alpha virt. eigenvalues --    5.58210   5.59084   5.59651   5.60036   5.60531
 Alpha virt. eigenvalues --    5.60848   5.61915   5.63379   5.67597   5.68859
 Alpha virt. eigenvalues --    5.71146   5.71884   5.72418   5.75878   5.78527
 Alpha virt. eigenvalues --    5.82095   5.83064   5.86676   5.89479   5.92729
 Alpha virt. eigenvalues --    5.96961   5.98832   5.99483   6.00312   6.00800
 Alpha virt. eigenvalues --    6.01615   6.02631   6.02732   6.03548   6.03983
 Alpha virt. eigenvalues --    6.04742   6.05057   6.05596   6.05902   6.06450
 Alpha virt. eigenvalues --    6.06486   6.08571   6.09566   6.10105   6.10820
 Alpha virt. eigenvalues --    6.11596   6.12573   6.14260   6.17051   6.18882
 Alpha virt. eigenvalues --    6.20144   6.20658   6.22748   6.24165   6.26516
 Alpha virt. eigenvalues --    6.28152   6.28772   6.31070   6.32104   6.32771
 Alpha virt. eigenvalues --    6.33200   6.36416   6.36852   6.40369   6.42297
 Alpha virt. eigenvalues --    6.44197   6.44708   6.51585   6.51962   6.64375
 Alpha virt. eigenvalues --    6.71398   6.77358   6.78900   6.81222   6.84701
 Alpha virt. eigenvalues --    6.88901   6.91478   6.92546   7.08052   7.21620
 Alpha virt. eigenvalues --    7.23764   7.24337   7.37206   7.39200   7.81862
 Alpha virt. eigenvalues --    8.00271   8.24290   9.62688   9.83093  10.00111
 Alpha virt. eigenvalues --   10.63831  12.25927  12.28760  12.56012  12.77053
 Alpha virt. eigenvalues --   12.90141  12.96271  13.18778  13.24194  13.26226
 Alpha virt. eigenvalues --   13.47150  13.53741  13.64887  13.66751  13.73766
 Alpha virt. eigenvalues --   13.77188  13.81080  13.85364  13.88053  13.95749
 Alpha virt. eigenvalues --   15.02807  35.15651  35.67293  35.80190  46.37962
  Beta  occ. eigenvalues --  -77.23776 -19.32977 -19.32934 -19.21613 -19.18331
  Beta  occ. eigenvalues --  -14.42261 -14.42104 -10.28471 -10.28118 -10.27814
  Beta  occ. eigenvalues --  -10.25395 -10.24952 -10.24606 -10.24445 -10.24116
  Beta  occ. eigenvalues --  -10.23929 -10.23818 -10.23735 -10.22913 -10.20804
  Beta  occ. eigenvalues --  -10.20551 -10.20532 -10.20482 -10.20452 -10.20345
  Beta  occ. eigenvalues --  -10.20341 -10.20141  -6.61157  -4.74866  -4.74746
  Beta  occ. eigenvalues --   -4.74476  -2.97630  -1.82935  -1.81402  -1.78314
  Beta  occ. eigenvalues --   -1.28343  -1.09237  -1.00897  -1.00048  -0.96365
  Beta  occ. eigenvalues --   -0.84502  -0.83493  -0.82842  -0.82154  -0.77826
  Beta  occ. eigenvalues --   -0.76794  -0.76320  -0.73710  -0.70244  -0.70183
  Beta  occ. eigenvalues --   -0.69701  -0.69204  -0.69132  -0.66093  -0.65251
  Beta  occ. eigenvalues --   -0.62837  -0.61341  -0.57646  -0.55560  -0.54643
  Beta  occ. eigenvalues --   -0.52916  -0.52829  -0.52577  -0.52088  -0.51117
  Beta  occ. eigenvalues --   -0.50229  -0.49614  -0.48059  -0.47480  -0.47313
  Beta  occ. eigenvalues --   -0.47144  -0.45929  -0.45359  -0.45141  -0.45001
  Beta  occ. eigenvalues --   -0.44552  -0.44139  -0.43753  -0.43336  -0.42786
  Beta  occ. eigenvalues --   -0.42076  -0.41899  -0.41520  -0.41206  -0.41003
  Beta  occ. eigenvalues --   -0.40395  -0.39951  -0.39578  -0.39110  -0.38925
  Beta  occ. eigenvalues --   -0.38514  -0.38059  -0.37934  -0.37738  -0.36656
  Beta  occ. eigenvalues --   -0.36265  -0.36200  -0.35817  -0.34890  -0.34788
  Beta  occ. eigenvalues --   -0.34530  -0.34221  -0.33237  -0.32880  -0.32155
  Beta  occ. eigenvalues --   -0.31981  -0.31517  -0.30927  -0.30479  -0.28844
  Beta  occ. eigenvalues --   -0.26677  -0.26034  -0.21293  -0.19273  -0.17664
  Beta  occ. eigenvalues --   -0.15547
  Beta virt. eigenvalues --   -0.09352  -0.09172  -0.04683  -0.01873   0.00944
  Beta virt. eigenvalues --    0.01038   0.02529   0.03117   0.03736   0.04257
  Beta virt. eigenvalues --    0.06223   0.06561   0.07667   0.07777   0.07921
  Beta virt. eigenvalues --    0.08141   0.09048   0.09173   0.09441   0.09940
  Beta virt. eigenvalues --    0.10185   0.10376   0.10665   0.11208   0.11601
  Beta virt. eigenvalues --    0.11849   0.12381   0.12426   0.12915   0.13062
  Beta virt. eigenvalues --    0.13337   0.13568   0.13826   0.14345   0.14674
  Beta virt. eigenvalues --    0.14794   0.15303   0.15641   0.15894   0.16137
  Beta virt. eigenvalues --    0.16508   0.16726   0.16934   0.17463   0.17542
  Beta virt. eigenvalues --    0.17880   0.17983   0.18609   0.18779   0.18940
  Beta virt. eigenvalues --    0.19605   0.19765   0.19871   0.20234   0.20504
  Beta virt. eigenvalues --    0.20602   0.20954   0.21242   0.21341   0.21802
  Beta virt. eigenvalues --    0.22103   0.22751   0.23185   0.23562   0.24443
  Beta virt. eigenvalues --    0.24658   0.24726   0.25665   0.26105   0.26181
  Beta virt. eigenvalues --    0.27087   0.27456   0.28023   0.28418   0.28849
  Beta virt. eigenvalues --    0.29010   0.29482   0.30026   0.30233   0.30837
  Beta virt. eigenvalues --    0.30936   0.31575   0.32043   0.32195   0.32390
  Beta virt. eigenvalues --    0.32636   0.33624   0.33798   0.34117   0.34453
  Beta virt. eigenvalues --    0.34705   0.35086   0.35593   0.36093   0.36401
  Beta virt. eigenvalues --    0.37046   0.37340   0.37765   0.38397   0.38956
  Beta virt. eigenvalues --    0.39070   0.39746   0.39880   0.40347   0.40723
  Beta virt. eigenvalues --    0.41159   0.41511   0.41754   0.42420   0.42474
  Beta virt. eigenvalues --    0.42847   0.43403   0.43629   0.44085   0.44311
  Beta virt. eigenvalues --    0.44414   0.44843   0.45196   0.45355   0.45460
  Beta virt. eigenvalues --    0.45742   0.46183   0.46297   0.46662   0.47048
  Beta virt. eigenvalues --    0.47245   0.47317   0.47809   0.47956   0.48236
  Beta virt. eigenvalues --    0.48490   0.48844   0.49153   0.49526   0.49677
  Beta virt. eigenvalues --    0.49921   0.50229   0.50398   0.50923   0.51042
  Beta virt. eigenvalues --    0.51287   0.51873   0.51971   0.52186   0.52491
  Beta virt. eigenvalues --    0.52799   0.53031   0.53321   0.53618   0.53833
  Beta virt. eigenvalues --    0.54381   0.54547   0.55000   0.55376   0.55456
  Beta virt. eigenvalues --    0.55915   0.56113   0.56283   0.56526   0.56605
  Beta virt. eigenvalues --    0.57269   0.57577   0.58124   0.58177   0.58355
  Beta virt. eigenvalues --    0.58602   0.59105   0.59320   0.59499   0.59852
  Beta virt. eigenvalues --    0.60470   0.60786   0.60956   0.61909   0.62273
  Beta virt. eigenvalues --    0.62732   0.62917   0.63137   0.63735   0.64124
  Beta virt. eigenvalues --    0.64735   0.64935   0.65392   0.65588   0.66105
  Beta virt. eigenvalues --    0.66636   0.66770   0.67374   0.67856   0.68249
  Beta virt. eigenvalues --    0.69198   0.69675   0.69930   0.70476   0.70754
  Beta virt. eigenvalues --    0.71296   0.71972   0.72603   0.73111   0.73275
  Beta virt. eigenvalues --    0.73772   0.73978   0.74957   0.75171   0.75456
  Beta virt. eigenvalues --    0.75719   0.75746   0.76740   0.77492   0.78168
  Beta virt. eigenvalues --    0.78497   0.78679   0.79160   0.79565   0.80016
  Beta virt. eigenvalues --    0.80303   0.80608   0.80859   0.82100   0.82451
  Beta virt. eigenvalues --    0.82878   0.83561   0.83753   0.84455   0.84530
  Beta virt. eigenvalues --    0.85248   0.85529   0.85823   0.86301   0.86744
  Beta virt. eigenvalues --    0.87219   0.87625   0.88141   0.88949   0.89128
  Beta virt. eigenvalues --    0.89358   0.89513   0.90372   0.90556   0.91298
  Beta virt. eigenvalues --    0.91795   0.92525   0.92824   0.93176   0.93612
  Beta virt. eigenvalues --    0.93775   0.94143   0.94646   0.95009   0.95231
  Beta virt. eigenvalues --    0.95793   0.96122   0.96338   0.96743   0.97524
  Beta virt. eigenvalues --    0.98061   0.98422   0.98740   0.99184   0.99539
  Beta virt. eigenvalues --    0.99775   0.99928   1.00689   1.01024   1.01345
  Beta virt. eigenvalues --    1.01650   1.01942   1.02376   1.02562   1.03127
  Beta virt. eigenvalues --    1.03338   1.03564   1.04027   1.04481   1.05131
  Beta virt. eigenvalues --    1.05542   1.06259   1.06547   1.06972   1.07262
  Beta virt. eigenvalues --    1.07512   1.08375   1.08976   1.09088   1.09618
  Beta virt. eigenvalues --    1.09778   1.10392   1.10563   1.10937   1.11680
  Beta virt. eigenvalues --    1.11818   1.12494   1.12711   1.13378   1.13533
  Beta virt. eigenvalues --    1.13927   1.14653   1.14750   1.15407   1.15683
  Beta virt. eigenvalues --    1.15802   1.16301   1.16773   1.17192   1.17470
  Beta virt. eigenvalues --    1.17884   1.18775   1.19025   1.19202   1.19482
  Beta virt. eigenvalues --    1.19865   1.20359   1.20478   1.21249   1.21477
  Beta virt. eigenvalues --    1.21562   1.21970   1.22643   1.22964   1.23224
  Beta virt. eigenvalues --    1.23822   1.23903   1.24348   1.24939   1.25448
  Beta virt. eigenvalues --    1.25656   1.26035   1.26150   1.26761   1.27071
  Beta virt. eigenvalues --    1.27433   1.27863   1.28210   1.28311   1.28714
  Beta virt. eigenvalues --    1.29064   1.29439   1.29938   1.30005   1.30239
  Beta virt. eigenvalues --    1.30861   1.30946   1.31425   1.31672   1.31788
  Beta virt. eigenvalues --    1.32408   1.32721   1.32882   1.33231   1.33518
  Beta virt. eigenvalues --    1.33542   1.34442   1.34584   1.34790   1.34906
  Beta virt. eigenvalues --    1.35149   1.35761   1.35976   1.36460   1.36822
  Beta virt. eigenvalues --    1.36904   1.37804   1.37919   1.37976   1.38249
  Beta virt. eigenvalues --    1.38576   1.38698   1.39092   1.39785   1.40039
  Beta virt. eigenvalues --    1.40415   1.41005   1.41410   1.41790   1.42398
  Beta virt. eigenvalues --    1.42849   1.42944   1.43348   1.43894   1.44257
  Beta virt. eigenvalues --    1.45014   1.45391   1.45562   1.46029   1.46370
  Beta virt. eigenvalues --    1.46951   1.47349   1.48170   1.48509   1.48666
  Beta virt. eigenvalues --    1.49492   1.49616   1.50125   1.50741   1.51413
  Beta virt. eigenvalues --    1.51779   1.52187   1.52559   1.53005   1.53432
  Beta virt. eigenvalues --    1.54146   1.54713   1.55701   1.56338   1.56805
  Beta virt. eigenvalues --    1.57052   1.57547   1.57893   1.58035   1.58501
  Beta virt. eigenvalues --    1.59274   1.59866   1.59959   1.60439   1.60754
  Beta virt. eigenvalues --    1.61116   1.61422   1.61776   1.61996   1.62497
  Beta virt. eigenvalues --    1.62704   1.63414   1.63464   1.64202   1.64632
  Beta virt. eigenvalues --    1.65258   1.65836   1.66532   1.66912   1.67273
  Beta virt. eigenvalues --    1.68243   1.68548   1.69344   1.69806   1.70407
  Beta virt. eigenvalues --    1.70785   1.71341   1.71510   1.72387   1.72986
  Beta virt. eigenvalues --    1.73696   1.74632   1.75526   1.75664   1.76224
  Beta virt. eigenvalues --    1.76549   1.77433   1.79180   1.79390   1.80170
  Beta virt. eigenvalues --    1.80522   1.82171   1.83414   1.83690   1.84339
  Beta virt. eigenvalues --    1.85521   1.87246   1.87922   1.88781   1.90006
  Beta virt. eigenvalues --    1.91423   1.91676   1.92136   1.92757   1.93415
  Beta virt. eigenvalues --    1.94378   1.95742   1.96081   1.97140   1.99172
  Beta virt. eigenvalues --    1.99748   2.01466   2.03064   2.03316   2.04197
  Beta virt. eigenvalues --    2.04847   2.05589   2.06961   2.09688   2.10348
  Beta virt. eigenvalues --    2.10673   2.12374   2.13978   2.16096   2.16599
  Beta virt. eigenvalues --    2.17824   2.19952   2.21168   2.21775   2.22369
  Beta virt. eigenvalues --    2.23143   2.24313   2.24818   2.26013   2.27153
  Beta virt. eigenvalues --    2.27339   2.29153   2.30164   2.31452   2.32451
  Beta virt. eigenvalues --    2.33098   2.34183   2.34982   2.35602   2.36630
  Beta virt. eigenvalues --    2.36777   2.37390   2.38378   2.38945   2.39238
  Beta virt. eigenvalues --    2.40197   2.41068   2.42755   2.43064   2.43347
  Beta virt. eigenvalues --    2.44070   2.44995   2.45423   2.46213   2.46774
  Beta virt. eigenvalues --    2.47713   2.47990   2.49082   2.50279   2.50863
  Beta virt. eigenvalues --    2.51396   2.51590   2.52101   2.52827   2.53291
  Beta virt. eigenvalues --    2.54243   2.55078   2.55995   2.56823   2.57349
  Beta virt. eigenvalues --    2.57619   2.57784   2.58238   2.58426   2.59818
  Beta virt. eigenvalues --    2.59877   2.60530   2.60999   2.62119   2.62441
  Beta virt. eigenvalues --    2.63056   2.63503   2.63989   2.64774   2.65181
  Beta virt. eigenvalues --    2.65261   2.65757   2.66656   2.67101   2.67708
  Beta virt. eigenvalues --    2.68466   2.69063   2.69170   2.69414   2.70307
  Beta virt. eigenvalues --    2.70830   2.71169   2.71798   2.71986   2.72391
  Beta virt. eigenvalues --    2.72619   2.72929   2.73994   2.74353   2.74935
  Beta virt. eigenvalues --    2.75503   2.75998   2.76982   2.77305   2.77528
  Beta virt. eigenvalues --    2.78168   2.78430   2.78934   2.79289   2.79828
  Beta virt. eigenvalues --    2.80126   2.80490   2.80984   2.81403   2.81650
  Beta virt. eigenvalues --    2.81742   2.82250   2.82488   2.83035   2.83491
  Beta virt. eigenvalues --    2.83664   2.84186   2.84346   2.84900   2.85275
  Beta virt. eigenvalues --    2.85863   2.86700   2.86843   2.87336   2.87641
  Beta virt. eigenvalues --    2.88292   2.88924   2.89678   2.90172   2.90312
  Beta virt. eigenvalues --    2.90896   2.91389   2.91573   2.92213   2.92789
  Beta virt. eigenvalues --    2.93252   2.93644   2.94239   2.94267   2.94660
  Beta virt. eigenvalues --    2.95170   2.95547   2.95986   2.96271   2.96676
  Beta virt. eigenvalues --    2.97875   2.98950   2.99103   2.99814   3.00093
  Beta virt. eigenvalues --    3.00330   3.00829   3.01344   3.01876   3.02106
  Beta virt. eigenvalues --    3.02616   3.02922   3.03167   3.03635   3.03909
  Beta virt. eigenvalues --    3.04119   3.04407   3.04807   3.05224   3.05372
  Beta virt. eigenvalues --    3.05928   3.06555   3.07068   3.07313   3.07587
  Beta virt. eigenvalues --    3.07835   3.08598   3.08694   3.08855   3.09117
  Beta virt. eigenvalues --    3.09547   3.10189   3.10271   3.10698   3.11015
  Beta virt. eigenvalues --    3.11240   3.11680   3.11961   3.12129   3.12566
  Beta virt. eigenvalues --    3.12625   3.13179   3.13534   3.13627   3.14235
  Beta virt. eigenvalues --    3.14296   3.14547   3.14745   3.15202   3.15483
  Beta virt. eigenvalues --    3.15946   3.16075   3.16730   3.17095   3.17345
  Beta virt. eigenvalues --    3.17702   3.18119   3.18506   3.19268   3.19422
  Beta virt. eigenvalues --    3.20098   3.20439   3.20998   3.21141   3.21496
  Beta virt. eigenvalues --    3.21957   3.22292   3.22855   3.23261   3.23430
  Beta virt. eigenvalues --    3.24307   3.24462   3.24481   3.25012   3.25266
  Beta virt. eigenvalues --    3.25770   3.26335   3.26428   3.26655   3.27347
  Beta virt. eigenvalues --    3.27731   3.28388   3.29006   3.29554   3.30157
  Beta virt. eigenvalues --    3.30301   3.30754   3.31352   3.31686   3.32163
  Beta virt. eigenvalues --    3.32287   3.32775   3.33240   3.33637   3.34044
  Beta virt. eigenvalues --    3.34289   3.34991   3.35522   3.35961   3.36215
  Beta virt. eigenvalues --    3.36505   3.37245   3.37468   3.38004   3.38293
  Beta virt. eigenvalues --    3.38822   3.38937   3.39220   3.40208   3.40323
  Beta virt. eigenvalues --    3.41063   3.41121   3.41848   3.41974   3.42673
  Beta virt. eigenvalues --    3.43327   3.43507   3.43844   3.44108   3.44428
  Beta virt. eigenvalues --    3.45066   3.45389   3.45693   3.45953   3.46458
  Beta virt. eigenvalues --    3.46694   3.46971   3.47270   3.47444   3.47676
  Beta virt. eigenvalues --    3.48045   3.48829   3.49240   3.49473   3.49697
  Beta virt. eigenvalues --    3.50303   3.50546   3.50837   3.51414   3.51657
  Beta virt. eigenvalues --    3.51899   3.52484   3.52740   3.53422   3.53470
  Beta virt. eigenvalues --    3.53921   3.54954   3.55279   3.56022   3.56308
  Beta virt. eigenvalues --    3.56897   3.57318   3.57639   3.57925   3.58413
  Beta virt. eigenvalues --    3.58803   3.59192   3.59566   3.59840   3.60166
  Beta virt. eigenvalues --    3.60806   3.61140   3.61243   3.61694   3.61957
  Beta virt. eigenvalues --    3.62260   3.62426   3.62909   3.63226   3.64144
  Beta virt. eigenvalues --    3.64487   3.65900   3.66412   3.67328   3.67411
  Beta virt. eigenvalues --    3.68382   3.68604   3.69371   3.69692   3.70180
  Beta virt. eigenvalues --    3.70607   3.70942   3.71612   3.71955   3.72060
  Beta virt. eigenvalues --    3.72806   3.73599   3.73625   3.74047   3.75030
  Beta virt. eigenvalues --    3.75628   3.75879   3.76094   3.76613   3.77068
  Beta virt. eigenvalues --    3.77455   3.78273   3.78404   3.78852   3.79298
  Beta virt. eigenvalues --    3.79488   3.79567   3.80107   3.80992   3.81468
  Beta virt. eigenvalues --    3.81702   3.82584   3.83263   3.83968   3.84126
  Beta virt. eigenvalues --    3.84824   3.85121   3.86089   3.86514   3.86552
  Beta virt. eigenvalues --    3.87116   3.87420   3.87923   3.88149   3.88412
  Beta virt. eigenvalues --    3.89164   3.89343   3.90015   3.90841   3.91716
  Beta virt. eigenvalues --    3.92080   3.92427   3.92920   3.93562   3.94337
  Beta virt. eigenvalues --    3.94592   3.95154   3.95453   3.96076   3.96598
  Beta virt. eigenvalues --    3.96648   3.96756   3.97498   3.97652   3.98137
  Beta virt. eigenvalues --    3.98695   3.99284   3.99925   4.00859   4.01060
  Beta virt. eigenvalues --    4.01163   4.01936   4.02472   4.02931   4.03655
  Beta virt. eigenvalues --    4.04020   4.04610   4.04787   4.05320   4.05738
  Beta virt. eigenvalues --    4.06101   4.06803   4.07087   4.07830   4.08156
  Beta virt. eigenvalues --    4.08579   4.08780   4.09292   4.09710   4.10335
  Beta virt. eigenvalues --    4.10512   4.10853   4.11217   4.11775   4.11890
  Beta virt. eigenvalues --    4.12526   4.12906   4.13115   4.13292   4.13824
  Beta virt. eigenvalues --    4.14168   4.14503   4.15386   4.15534   4.15979
  Beta virt. eigenvalues --    4.16159   4.16770   4.17002   4.17612   4.18122
  Beta virt. eigenvalues --    4.18599   4.19057   4.19411   4.19969   4.20086
  Beta virt. eigenvalues --    4.20429   4.20885   4.21607   4.21748   4.22430
  Beta virt. eigenvalues --    4.22976   4.23321   4.23811   4.24624   4.24796
  Beta virt. eigenvalues --    4.25115   4.25664   4.25959   4.26201   4.26748
  Beta virt. eigenvalues --    4.26877   4.27576   4.27833   4.28106   4.28644
  Beta virt. eigenvalues --    4.29050   4.29574   4.29966   4.30321   4.30608
  Beta virt. eigenvalues --    4.31028   4.31523   4.31712   4.32153   4.32427
  Beta virt. eigenvalues --    4.32518   4.32908   4.33454   4.34040   4.34382
  Beta virt. eigenvalues --    4.34728   4.34981   4.35678   4.36013   4.36506
  Beta virt. eigenvalues --    4.36895   4.37559   4.37919   4.38235   4.38768
  Beta virt. eigenvalues --    4.39348   4.39651   4.40137   4.41145   4.41539
  Beta virt. eigenvalues --    4.41830   4.42248   4.42539   4.43757   4.44275
[...]
    62   Atom        0.001793     -0.003759     -0.007839
    63   Atom        0.010623     -0.000814      0.000751
    64   Atom        0.018693      0.006861      0.014723
    65   Atom        0.005060      0.000064     -0.000782
 --------------------------------------------------------


 ---------------------------------------------------------------------------------
              Anisotropic Spin Dipole Couplings in Principal Axis System
 ---------------------------------------------------------------------------------

       Atom             a.u.   MegaHertz   Gauss  10(-4) cm-1        Axes

              Baa    -0.0029    -1.558    -0.556    -0.520  0.1226  0.9092  0.3980
     1 H(1)   Bbb    -0.0029    -1.545    -0.551    -0.515  0.5479 -0.3964  0.7366
              Bcc     0.0058     3.103     1.107     1.035  0.8275  0.1277 -0.5468
 
              Baa    -0.0027    -0.359    -0.128    -0.120  0.3327  0.6072  0.7215
     2 C(13)  Bbb    -0.0026    -0.353    -0.126    -0.118 -0.6064  0.7237 -0.3295
              Bcc     0.0053     0.712     0.254     0.237  0.7222  0.3279 -0.6090
 
              Baa    -0.0015    -0.782    -0.279    -0.261  0.4370  0.5419  0.7179
     3 H(1)   Bbb    -0.0014    -0.766    -0.273    -0.256 -0.5726  0.7831 -0.2426
              Bcc     0.0029     1.548     0.553     0.517  0.6936  0.3051 -0.6526
 
              Baa    -0.0038    -2.013    -0.718    -0.671  0.0275  0.9046  0.4253
     4 H(1)   Bbb    -0.0037    -1.979    -0.706    -0.660  0.8250 -0.2607  0.5013
              Bcc     0.0075     3.992     1.424     1.332 -0.5644 -0.3371  0.7535
 
              Baa    -0.0116    -6.188    -2.208    -2.064 -0.1839 -0.0673  0.9806
     5 H(1)   Bbb    -0.0100    -5.312    -1.895    -1.772  0.9105  0.3644  0.1957
              Bcc     0.0216    11.500     4.104     3.836 -0.3705  0.9288 -0.0057
 
              Baa    -2.4789   179.370    64.004    59.831  0.9666  0.1767  0.1858
     6 O(17)  Bbb     1.2280   -88.854   -31.705   -29.638 -0.2205  0.9427  0.2504
              Bcc     1.2509   -90.516   -32.298   -30.193 -0.1309 -0.2830  0.9501
 
              Baa    -0.0017    -0.921    -0.329    -0.307 -0.2385  0.4653  0.8524
     7 H(1)   Bbb    -0.0017    -0.891    -0.318    -0.297  0.7141  0.6789 -0.1708
              Bcc     0.0034     1.812     0.647     0.604  0.6582 -0.5680  0.4942
 
              Baa    -2.5263   182.801    65.228    60.976  0.9667  0.1771  0.1848
     8 O(17)  Bbb     1.2534   -90.692   -32.361   -30.252 -0.1269  0.9587 -0.2546
              Bcc     1.2729   -92.109   -32.867   -30.724 -0.2223  0.2227  0.9492
 
              Baa    -0.0027    -0.358    -0.128    -0.119  0.0578  0.5117  0.8572
     9 C(13)  Bbb    -0.0025    -0.337    -0.120    -0.112  0.6623 -0.6621  0.3506
              Bcc     0.0052     0.694     0.248     0.232  0.7470  0.5475 -0.3772
 
              Baa    -0.0045    -2.393    -0.854    -0.798  0.0645 -0.2321  0.9705
    10 H(1)   Bbb    -0.0043    -2.308    -0.824    -0.770  0.7548  0.6476  0.1047
              Bcc     0.0088     4.701     1.678     1.568 -0.6528  0.7258  0.2170
 
              Baa    -0.0016    -0.862    -0.307    -0.287 -0.0372  0.5420  0.8395
    11 H(1)   Bbb    -0.0016    -0.835    -0.298    -0.278 -0.5614  0.6837 -0.4663
              Bcc     0.0032     1.696     0.605     0.566  0.8267  0.4886 -0.2789
 
              Baa    -0.0057    -0.767    -0.274    -0.256  0.0473  0.0470  0.9978
    12 C(13)  Bbb    -0.0056    -0.751    -0.268    -0.251  0.8280  0.5569 -0.0654
              Bcc     0.0113     1.518     0.542     0.506 -0.5587  0.8293 -0.0126
 
              Baa    -0.0028    -1.513    -0.540    -0.505 -0.4074  0.6038  0.6851
    13 H(1)   Bbb    -0.0027    -1.434    -0.512    -0.478  0.7926  0.6065 -0.0632
              Bcc     0.0055     2.947     1.052     0.983  0.4537 -0.5173  0.7257
 
              Baa    -0.0058    -3.073    -1.096    -1.025 -0.3145  0.0191  0.9491
    14 H(1)   Bbb    -0.0055    -2.916    -1.041    -0.973  0.6470  0.7359  0.1996
              Bcc     0.0112     5.989     2.137     1.998  0.6946 -0.6768  0.2438
 
              Baa    -0.0047    -2.519    -0.899    -0.840 -0.1284  0.5030  0.8547
    15 H(1)   Bbb    -0.0046    -2.462    -0.878    -0.821 -0.6144  0.6362 -0.4666
              Bcc     0.0093     4.981     1.777     1.661  0.7784  0.5851 -0.2274
 
              Baa    -0.0017    -0.226    -0.081    -0.075 -0.3364  0.5435  0.7691
    16 C(13)  Bbb    -0.0016    -0.215    -0.077    -0.072  0.7856  0.6123 -0.0891
              Bcc     0.0033     0.441     0.157     0.147  0.5193 -0.5742  0.6329
 
              Baa    -0.0011    -0.597    -0.213    -0.199 -0.3847  0.6044  0.6976
    17 H(1)   Bbb    -0.0011    -0.576    -0.206    -0.192  0.7523  0.6432 -0.1425
              Bcc     0.0022     1.173     0.419     0.391  0.5348 -0.4701  0.7021
 
              Baa    -0.0020    -1.060    -0.378    -0.354  0.6427 -0.4701 -0.6050
    18 H(1)   Bbb    -0.0019    -1.018    -0.363    -0.339  0.4994 -0.3418  0.7961
              Bcc     0.0039     2.078     0.741     0.693  0.5810  0.8138 -0.0151
 
              Baa    -0.0046     0.113     0.040     0.038  0.9365 -0.3239 -0.1341
    19 Ru(99) Bbb    -0.0032     0.077     0.028     0.026  0.2950  0.5215  0.8006
              Bcc     0.0078    -0.190    -0.068    -0.063  0.1894  0.7894 -0.5840
 
              Baa    -0.0024    -1.282    -0.457    -0.427 -0.2624 -0.1591  0.9518
    20 H(1)   Bbb    -0.0024    -1.256    -0.448    -0.419  0.9612  0.0438  0.2723
              Bcc     0.0048     2.538     0.906     0.847 -0.0850  0.9863  0.1415
 
              Baa    -0.0020    -0.076    -0.027    -0.025  0.0640  0.4458  0.8928
    21 N(14)  Bbb    -0.0017    -0.064    -0.023    -0.021  0.8178 -0.5362  0.2091
              Bcc     0.0036     0.140     0.050     0.047  0.5720  0.7167 -0.3989
 
              Baa    -0.0014    -0.194    -0.069    -0.065 -0.5065  0.4939  0.7067
    22 C(13)  Bbb    -0.0013    -0.173    -0.062    -0.058  0.6508 -0.3186  0.6891
              Bcc     0.0027     0.368     0.131     0.123  0.5655  0.8090 -0.1601
 
              Baa    -0.0025    -0.331    -0.118    -0.110 -0.0295  0.0856  0.9959
    23 C(13)  Bbb    -0.0022    -0.296    -0.106    -0.099  0.9165  0.3999 -0.0072
              Bcc     0.0047     0.626     0.224     0.209 -0.3988  0.9126 -0.0903
 
              Baa    -0.0017    -0.899    -0.321    -0.300 -0.0638 -0.3368  0.9394
    24 H(1)   Bbb    -0.0016    -0.869    -0.310    -0.290  0.9407  0.2940  0.1693
              Bcc     0.0033     1.768     0.631     0.590 -0.3332  0.8945  0.2981
 
              Baa    -0.0007    -0.364    -0.130    -0.121 -0.0871  0.4054  0.9100
    25 H(1)   Bbb    -0.0007    -0.353    -0.126    -0.118  0.8338  0.5296 -0.1561
              Bcc     0.0013     0.717     0.256     0.239 -0.5452  0.7451 -0.3841
 
              Baa    -0.0018    -0.240    -0.086    -0.080  0.8991  0.1760  0.4008
    26 C(13)  Bbb    -0.0017    -0.233    -0.083    -0.078 -0.3624 -0.2140  0.9071
              Bcc     0.0035     0.473     0.169     0.158 -0.2455  0.9608  0.1286
 
              Baa    -0.0012    -0.164    -0.059    -0.055 -0.1477  0.5603  0.8150
    27 C(13)  Bbb    -0.0011    -0.151    -0.054    -0.050  0.9155  0.3893 -0.1017
              Bcc     0.0024     0.316     0.113     0.105 -0.3743  0.7311 -0.5704
 
              Baa    -0.0019    -0.421    -0.150    -0.140  0.9495  0.0525 -0.3094
    28 P(31)  Bbb    -0.0018    -0.392    -0.140    -0.131  0.2594  0.4233  0.8681
              Bcc     0.0038     0.812     0.290     0.271 -0.1765  0.9045 -0.3883
 
              Baa    -0.0009    -0.505    -0.180    -0.168 -0.4252  0.5091  0.7483
    29 H(1)   Bbb    -0.0009    -0.482    -0.172    -0.161  0.6280 -0.4294  0.6490
              Bcc     0.0018     0.986     0.352     0.329  0.6518  0.7459 -0.1371
 
              Baa    -0.0007    -0.092    -0.033    -0.031 -0.1823  0.4650  0.8663
    30 C(13)  Bbb    -0.0007    -0.088    -0.031    -0.029  0.8739  0.4804 -0.0740
              Bcc     0.0013     0.180     0.064     0.060 -0.4506  0.7436 -0.4940
 
              Baa    -0.0011    -0.605    -0.216    -0.202  0.5689  0.3596  0.7396
    31 H(1)   Bbb    -0.0010    -0.550    -0.196    -0.183 -0.6579  0.7386  0.1469
              Bcc     0.0022     1.154     0.412     0.385 -0.4934 -0.5702  0.6568
 
              Baa    -0.0007    -0.374    -0.133    -0.125  0.2115  0.4952  0.8426
    32 H(1)   Bbb    -0.0007    -0.359    -0.128    -0.120 -0.6426  0.7200 -0.2619
              Bcc     0.0014     0.732     0.261     0.244  0.7364  0.4861 -0.4705
 
              Baa    -0.0005    -0.288    -0.103    -0.096 -0.2035  0.5473  0.8118
    33 H(1)   Bbb    -0.0005    -0.279    -0.099    -0.093  0.8525  0.5069 -0.1280
              Bcc     0.0011     0.566     0.202     0.189 -0.4816  0.6660 -0.5697
 
              Baa    -0.0011    -0.145    -0.052    -0.048  0.0350  0.5936  0.8040
    34 C(13)  Bbb    -0.0009    -0.122    -0.044    -0.041  0.8340 -0.4606  0.3039
              Bcc     0.0020     0.268     0.095     0.089  0.5507  0.6599 -0.5112
 
              Baa    -0.0011    -0.589    -0.210    -0.197  0.0922 -0.0437  0.9948
    35 H(1)   Bbb    -0.0011    -0.576    -0.205    -0.192  0.7781  0.6266 -0.0446
              Bcc     0.0022     1.165     0.416     0.389 -0.6213  0.7782  0.0917
 
              Baa    -0.0065    -0.873    -0.311    -0.291 -0.2144  0.6680  0.7126
    36 C(13)  Bbb    -0.0053    -0.716    -0.255    -0.239  0.9721  0.0752  0.2220
              Bcc     0.0118     1.589     0.567     0.530  0.0947  0.7404 -0.6655
 
              Baa    -0.0012    -0.162    -0.058    -0.054 -0.0554  0.0493  0.9972
    37 C(13)  Bbb    -0.0012    -0.159    -0.057    -0.053  0.8216  0.5698  0.0174
              Bcc     0.0024     0.321     0.114     0.107 -0.5673  0.8203 -0.0721
 
              Baa    -0.0013    -0.707    -0.252    -0.236  0.6361 -0.5550 -0.5361
    38 H(1)   Bbb    -0.0011    -0.612    -0.218    -0.204  0.7622  0.5604  0.3242
              Bcc     0.0025     1.320     0.471     0.440  0.1205 -0.6148  0.7794
 
              Baa    -0.0010    -0.135    -0.048    -0.045 -0.2183  0.6700  0.7095
    39 C(13)  Bbb    -0.0009    -0.114    -0.041    -0.038  0.9454  0.3255 -0.0165
              Bcc     0.0019     0.249     0.089     0.083  0.2420 -0.6672  0.7045
 
              Baa    -0.0012    -0.626    -0.223    -0.209 -0.0100  0.2308  0.9729
    40 H(1)   Bbb    -0.0011    -0.609    -0.217    -0.203  0.7447  0.6510 -0.1468
              Bcc     0.0023     1.236     0.441     0.412 -0.6673  0.7231 -0.1784
 
              Baa    -0.0007    -0.379    -0.135    -0.126 -0.5499  0.5597  0.6200
    41 H(1)   Bbb    -0.0007    -0.360    -0.128    -0.120  0.7907  0.5880  0.1705
              Bcc     0.0014     0.739     0.264     0.247  0.2692 -0.5839  0.7659
 
              Baa    -0.0011    -0.146    -0.052    -0.049  0.9224 -0.3836  0.0452
    42 C(13)  Bbb    -0.0009    -0.115    -0.041    -0.038  0.0189  0.1616  0.9867
              Bcc     0.0019     0.261     0.093     0.087  0.3858  0.9092 -0.1564
 
              Baa    -0.0013    -0.050    -0.018    -0.017 -0.4632  0.2434  0.8522
    43 N(14)  Bbb    -0.0011    -0.043    -0.015    -0.014  0.8667 -0.0766  0.4929
              Bcc     0.0024     0.093     0.033     0.031  0.1852  0.9669 -0.1755
 
              Baa    -0.0007    -0.094    -0.033    -0.031  0.0637  0.5705  0.8188
    44 C(13)  Bbb    -0.0006    -0.084    -0.030    -0.028  0.7335 -0.5831  0.3491
              Bcc     0.0013     0.177     0.063     0.059  0.6766  0.5784 -0.4556
 
              Baa    -0.0011    -0.568    -0.203    -0.190  0.4074  0.0048  0.9132
    45 H(1)   Bbb    -0.0010    -0.558    -0.199    -0.186  0.8862  0.2395 -0.3966
              Bcc     0.0021     1.126     0.402     0.376 -0.2207  0.9709  0.0934
 
              Baa    -0.0009    -0.476    -0.170    -0.159  0.0952  0.5030  0.8591
    46 H(1)   Bbb    -0.0008    -0.427    -0.152    -0.142  0.8867 -0.4352  0.1565
              Bcc     0.0017     0.903     0.322     0.301  0.4525  0.7468 -0.4874
 
              Baa    -0.0005    -0.289    -0.103    -0.096 -0.0185  0.4875  0.8729
    47 H(1)   Bbb    -0.0005    -0.277    -0.099    -0.092  0.9290  0.3312 -0.1653
              Bcc     0.0011     0.566     0.202     0.189 -0.3697  0.8078 -0.4590
 
              Baa    -0.0006    -0.297    -0.106    -0.099 -0.1939  0.6095  0.7687
    48 H(1)   Bbb    -0.0005    -0.288    -0.103    -0.096  0.7137 -0.4500  0.5368
              Bcc     0.0011     0.585     0.209     0.195  0.6731  0.6527 -0.3477
 
              Baa    -0.0009    -0.120    -0.043    -0.040  0.5495  0.3222  0.7709
    49 C(13)  Bbb    -0.0008    -0.108    -0.039    -0.036  0.8199 -0.0307 -0.5717
              Bcc     0.0017     0.229     0.082     0.076 -0.1606  0.9462 -0.2810
 
              Baa    -0.0005    -0.256    -0.091    -0.085  0.1130  0.6087  0.7853
    50 H(1)   Bbb    -0.0005    -0.249    -0.089    -0.083  0.7853 -0.5390  0.3048
              Bcc     0.0009     0.504     0.180     0.168  0.6088  0.5823 -0.5389
 
              Baa    -0.0008    -0.426    -0.152    -0.142  0.1321  0.1869  0.9735
    51 H(1)   Bbb    -0.0008    -0.414    -0.148    -0.138  0.8529  0.4790 -0.2077
              Bcc     0.0016     0.841     0.300     0.280 -0.5051  0.8577 -0.0961
 
              Baa    -0.0009    -0.125    -0.045    -0.042  0.9162  0.0296  0.3995
    52 C(13)  Bbb    -0.0007    -0.089    -0.032    -0.030 -0.3973  0.1958  0.8966
              Bcc     0.0016     0.214     0.076     0.071  0.0517  0.9802 -0.1912
 
              Baa    -0.0007    -0.088    -0.032    -0.029 -0.2380  0.1299  0.9625
    53 C(13)  Bbb    -0.0006    -0.076    -0.027    -0.025  0.8987 -0.3463  0.2690
              Bcc     0.0012     0.164     0.059     0.055  0.3683  0.9291 -0.0343
 
              Baa    -0.0007    -0.398    -0.142    -0.133 -0.4913  0.5228  0.6967
    54 H(1)   Bbb    -0.0007    -0.365    -0.130    -0.122  0.8586  0.4253  0.2863
              Bcc     0.0014     0.763     0.272     0.255 -0.1466  0.7388 -0.6578
 
              Baa    -0.0005    -0.267    -0.095    -0.089  0.6737 -0.3619 -0.6443
    55 H(1)   Bbb    -0.0005    -0.263    -0.094    -0.088  0.5725 -0.2957  0.7647
              Bcc     0.0010     0.529     0.189     0.177  0.4673  0.8841 -0.0080
 
              Baa    -0.0007    -0.373    -0.133    -0.124  0.2368  0.4224  0.8749
    56 H(1)   Bbb    -0.0007    -0.351    -0.125    -0.117  0.9608  0.0318 -0.2754
              Bcc     0.0014     0.724     0.258     0.241 -0.1441  0.9058 -0.3984
 
              Baa    -0.0007    -0.366    -0.130    -0.122  0.3340  0.2722  0.9024
    57 H(1)   Bbb    -0.0007    -0.353    -0.126    -0.118  0.9130  0.1444 -0.3815
              Bcc     0.0013     0.718     0.256     0.240 -0.2342  0.9513 -0.2003
 
              Baa    -0.0006    -0.079    -0.028    -0.026 -0.2896  0.0988  0.9520
    58 C(13)  Bbb    -0.0005    -0.066    -0.024    -0.022  0.9538 -0.0526  0.2957
              Bcc     0.0011     0.145     0.052     0.048  0.0793  0.9937 -0.0790
 
              Baa    -0.0005    -0.071    -0.025    -0.024  0.9573 -0.2232  0.1835
    59 C(13)  Bbb    -0.0004    -0.049    -0.018    -0.016 -0.1554  0.1380  0.9782
              Bcc     0.0009     0.121     0.043     0.040  0.2436  0.9650 -0.0974
 
              Baa    -0.0004    -0.216    -0.077    -0.072 -0.4596  0.0840  0.8841
    60 H(1)   Bbb    -0.0004    -0.215    -0.077    -0.072  0.8881  0.0436  0.4575
              Bcc     0.0008     0.432     0.154     0.144 -0.0001  0.9955 -0.0946
 
              Baa    -0.0003    -0.182    -0.065    -0.061  0.9700 -0.2401  0.0379
    61 H(1)   Bbb    -0.0003    -0.176    -0.063    -0.059 -0.0377  0.0055  0.9993
              Bcc     0.0007     0.359     0.128     0.120  0.2402  0.9707  0.0037
 
              Baa    -0.0082     0.593     0.211     0.198  0.0093  0.8980  0.4400
    62 O(17)  Bbb    -0.0046     0.332     0.118     0.111  0.9688 -0.1171  0.2184
              Bcc     0.0128    -0.924    -0.330    -0.308 -0.2476 -0.4242  0.8711
 
              Baa    -0.0162     1.170     0.417     0.390  0.2616 -0.0837  0.9615
    63 O(17)  Bbb    -0.0124     0.900     0.321     0.300  0.9276 -0.2534 -0.2744
              Bcc     0.0286    -2.069    -0.738    -0.690  0.2666  0.9637  0.0114
 
              Baa    -0.0185    -9.886    -3.527    -3.297 -0.3644 -0.1620  0.9170
    64 H(1)   Bbb    -0.0181    -9.650    -3.443    -3.219  0.8429 -0.4760  0.2509
              Bcc     0.0366    19.536     6.971     6.516  0.3959  0.8644  0.3100
 
              Baa    -0.0069    -3.662    -1.307    -1.221  0.7766 -0.2358 -0.5841
    65 H(1)   Bbb    -0.0063    -3.359    -1.199    -1.121  0.5718 -0.1253  0.8108
              Bcc     0.0132     7.021     2.505     2.342  0.2644  0.9637 -0.0376
 

 ---------------------------------------------------------------------------------

 1\1\GINC-NODE286\SP\UPBE1PBE\GenECP\C20H37N2O4P1Ru1(3)\JS1212\23-Jul-2
 020\0\\# genecp pbe1pbe EmpiricalDispersion=GD3BJ scrf=(SMD,solvent=wa
 ter)\\Title card Required\\0,3\H,0,-3.880175,-3.026456,1.457095\C,0,-3
 .393561,-2.477705,0.637276\H,0,-3.929041,-2.73157,-0.28985\H,0,-2.3592
 37,-2.836168,0.553619\H,0,1.473753,-0.460723,2.682003\O,0,-0.566785,-2
 .324794,4.087903\H,0,4.078161,-1.772525,0.327435\O,0,0.562445,-2.71554
 5,4.088117\C,0,-3.434071,-0.998075,0.947875\H,0,3.036192,0.054264,3.37
 8002\H,0,-4.486128,-0.651184,0.983325\C,0,2.534009,-0.286078,2.456487\
 H,0,2.517977,-2.606686,0.091174\H,0,2.981834,-1.244732,2.161588\H,0,-2
 .995127,-0.799646,1.935801\C,0,3.33694,-2.083261,-0.422977\H,0,3.83148
 2,-2.808236,-1.091547\H,0,-2.723903,1.301815,1.493231\Ru,0,-0.433349,-
 0.331867,0.078335\H,0,0.869153,1.846579,2.041961\N,0,-2.673105,-0.1449
 29,0.005623\C,0,-2.903807,1.258841,0.405554\C,0,2.668957,0.791851,1.37
 8686\H,0,2.375285,2.349634,2.841571\H,0,4.734659,0.196028,-1.193187\C,
 0,1.938389,2.044105,1.87587\C,0,2.825984,-0.903271,-1.25206\P,0,1.7167
 16,0.194991,-0.161188\H,0,-3.945021,1.576623,0.217939\C,0,4.000845,-0.
 182071,-1.914919\H,0,-2.704842,-1.379117,-1.673862\H,0,-5.166662,-0.90
 8772,-1.223771\H,0,4.526709,-0.890767,-2.577431\C,0,-3.048866,-0.36959
 1,-1.41182\H,0,4.556656,1.574655,2.065467\C,0,-0.073388,-2.006359,0.69
 2061\C,0,4.13797,1.131897,1.145513\H,0,1.03193,-1.957908,-1.913312\C,0
 ,1.9011,-1.444043,-2.348287\H,0,4.741455,0.244331,0.909114\H,0,2.4649,
 -2.146255,-2.985969\C,0,-1.935589,2.196606,-0.246141\N,0,-0.713431,1.6
 73393,-0.46644\C,0,-4.521072,-0.20015,-1.76326\H,0,2.044375,2.89594,1.
 186481\H,0,-2.435442,0.319095,-2.011339\H,0,3.67339,0.65969,-2.543784\
 H,0,-4.891447,0.81705,-1.566503\C,0,1.587128,1.752984,-1.207525\H,0,-4
 .65227,-0.389724,-2.839115\H,0,4.275364,1.869297,0.339075\C,0,0.281057
 ,2.44234,-0.963163\C,0,-2.218135,3.52816,-0.525115\H,0,1.516386,-0.641
 632,-2.998117\H,0,-3.217303,3.924017,-0.339794\H,0,1.600561,1.403332,-
 2.253071\H,0,2.434382,2.445865,-1.090731\C,0,0.062999,3.790794,-1.2358
 5\C,0,-1.198724,4.338265,-1.019168\H,0,0.879244,4.400625,-1.624682\H,0
 ,-1.386495,5.391358,-1.235908\O,0,0.219284,-3.070844,1.095577\O,0,-1.1
 47486,0.60505,2.98217\H,0,-1.074093,-0.180353,3.540216\H,0,-0.742275,0
 .275693,2.118351\\Version=ES64L-G16RevA.03\State=3-A\HF=-1630.0349034\
 S2=2.009345\S2-1=0.\S2A=2.000046\RMSD=2.002e-09\Dipole=-0.7436844,3.38
 63378,-2.3985614\Quadrupole=15.0048338,-5.7136094,-9.2912244,0.7935437
 ,1.0571253,-7.3515476\PG=C01 [X(C20H37N2O4P1Ru1)]\\@


 FOR THE NATURE OF THE CHEMICAL BOND
 IS THE PROBLEM AT THE HEART OF ALL CHEMISTRY.

                     -- BRYCE CRAWFORD, JR., 1953
 Job cpu time:       1 days  8 hours 37 minutes  8.6 seconds.
 Elapsed time:       0 days  1 hours 38 minutes  3.7 seconds.
 File lengths (MBytes):  RWF=   2032 Int=      0 D2E=      0 Chk=    132 Scr=      1
 Normal termination of Gaussian 16 at Thu Jul 23 00:19:48 2020.
