 Entering Gaussian System, Link 0=g16
 Initial command:
 /cluster/chemistry/gaussian/g16/l1.exe "/scratch/js1212.757594/scratch/Gau-17530.inp" -scrdir="/scratch/js1212.757594/scratch/"
 Entering Link 1 = /cluster/chemistry/gaussian/g16/l1.exe PID=     17531.
  
 Copyright (c) 1988,1990,1992,1993,1995,1998,2003,2009,2016,
            Gaussian, Inc.  All Rights Reserved.
  
 This is part of the Gaussian(R) 16 program.  It is based on
 the Gaussian(R) 09 system (copyright 2009, Gaussian, Inc.),
 the Gaussian(R) 03 system (copyright 2003, Gaussian, Inc.),
 the Gaussian(R) 98 system (copyright 1998, Gaussian, Inc.),
 the Gaussian(R) 94 system (copyright 1995, Gaussian, Inc.),
 the Gaussian 92(TM) system (copyright 1992, Gaussian, Inc.),
 the Gaussian 90(TM) system (copyright 1990, Gaussian, Inc.),
 the Gaussian 88(TM) system (copyright 1988, Gaussian, Inc.),
 the Gaussian 86(TM) system (copyright 1986, Carnegie Mellon
 University), and the Gaussian 82(TM) system (copyright 1983,
 Carnegie Mellon University). Gaussian is a federally registered
 trademark of Gaussian, Inc.
  
 This software contains proprietary and confidential information,
 including trade secrets, belonging to Gaussian, Inc.
  
 This software is provided under written license and may be
 used, copied, transmitted, or stored only in accord with that
 written license.
  
 The following legend is applicable only to US Government
 contracts under FAR:
  
                    RESTRICTED RIGHTS LEGEND
  
 Use, reproduction and disclosure by the US Government is
 subject to restrictions as set forth in subparagraphs (a)
 and (c) of the Commercial Computer Software - Restricted
 Rights clause in FAR 52.227-19.
  
 Gaussian, Inc.
 340 Quinnipiac St., Bldg. 40, Wallingford CT 06492
  
  
 ---------------------------------------------------------------
 Warning -- This program may not be used in any manner that
 competes with the business of Gaussian, Inc. or will provide
 assistance to any competitor of Gaussian, Inc.  The licensee
 of this program is prohibited from giving any competitor of
 Gaussian, Inc. access to this program.  By using this program,
 the user acknowledges that Gaussian, Inc. is engaged in the
 business of creating and licensing software in the field of
 computational chemistry and represents and warrants to the
 licensee that it is not a competitor of Gaussian, Inc. and that
 it will not use this program in any manner prohibited above.
 ---------------------------------------------------------------
  

 Cite this work as:
 Gaussian 16, Revision A.03,
 M. J. Frisch, G. W. Trucks, H. B. Schlegel, G. E. Scuseria, 
 M. A. Robb, J. R. Cheeseman, G. Scalmani, V. Barone, 
 G. A. Petersson, H. Nakatsuji, X. Li, M. Caricato, A. V. Marenich, 
 J. Bloino, B. G. Janesko, R. Gomperts, B. Mennucci, H. P. Hratchian, 
 J. V. Ortiz, A. F. Izmaylov, J. L. Sonnenberg, D. Williams-Young, 
 F. Ding, F. Lipparini, F. Egidi, J. Goings, B. Peng, A. Petrone, 
 T. Henderson, D. Ranasinghe, V. G. Zakrzewski, J. Gao, N. Rega, 
 G. Zheng, W. Liang, M. Hada, M. Ehara, K. Toyota, R. Fukuda, 
 J. Hasegawa, M. Ishida, T. Nakajima, Y. Honda, O. Kitao, H. Nakai, 
 T. Vreven, K. Throssell, J. A. Montgomery, Jr., J. E. Peralta, 
 F. Ogliaro, M. J. Bearpark, J. J. Heyd, E. N. Brothers, K. N. Kudin, 
 V. N. Staroverov, T. A. Keith, R. Kobayashi, J. Normand, 
 K. Raghavachari, A. P. Rendell, J. C. Burant, S. S. Iyengar, 
 J. Tomasi, M. Cossi, J. M. Millam, M. Klene, C. Adamo, R. Cammi, 
 J. W. Ochterski, R. L. Martin, K. Morokuma, O. Farkas, 
 J. B. Foresman, and D. J. Fox, Gaussian, Inc., Wallingford CT, 2016.
 
 ******************************************
 Gaussian 16:  ES64L-G16RevA.03 25-Dec-2016
                22-Jul-2020 
 ******************************************
 %rwf=/scratch/js1212.757594/J-Trans-R2-R2-Down-TSGuess-T-GP-SMD.rwf
 %nosave
 %nprocshared=20
 Will use up to   20 processors via shared memory.
 %mem=3000MB
 %oldchk=/data/js1212/200717_g16/J-Trans-R2-R2-Down-TSGuess-T-GPOF.chk
 %chk=/scratch/js1212.757594/J-Trans-R2-R2-Down-TSGuess-T-GP-SMD.chk
 Copying data from "/data/js1212/200717_g16/J-Trans-R2-R2-Down-TSGuess-T-GPOF.chk" to current chk file "/scratch/js1212.757594/J-Trans-R2-R2-Down-TSGuess-T-GP-SMD.chk"
 IOpt=  2 FromEx=T IUOpen= 4 IOptOp= 5 NList=   0 IFRang= 0 IUIn= 4 IUOut= 2.
 ----------------------------------------------------------------------
 # genecp pbe1pbe EmpiricalDispersion=GD3BJ scrf=(SMD,solvent=water) ge
 om=allcheck
 ----------------------------------------------------------------------
 1/29=7,38=1,172=1/1;
 2/12=2,40=1/2;
 3/5=7,11=2,14=-4,16=1,17=8,25=1,30=1,70=32201,72=1,74=-13,124=41/1,2,3;
 4//1;
 5/5=2,38=5,53=1/2;
 6/7=2,8=2,9=2,10=2,28=1/1;
 99/5=1,9=1/99;
 Structure from the checkpoint file:  "/scratch/js1212.757594/J-Trans-R2-R2-Down-TSGuess-T-GP-SMD.chk"
 -------------------
 Title Card Required
 -------------------
 Charge =  0 Multiplicity = 3
 Redundant internal coordinates found in file.  (old form).
 H,0,-1.7945252155,-0.6132884553,-5.0183696927
 C,0,-2.6069071705,-0.3474504185,-4.3261614746
 H,0,-3.4367691919,0.0516183885,-4.9288134528
 H,0,-2.2247324414,0.4422324169,-3.6616508524
 H,0,-0.4022130755,-0.1065939524,1.1243288654
 O,0,-1.873320018,-1.511333187,-0.6211788669
 H,0,-1.0976391807,2.6887291801,0.7512993294
 O,0,-0.7532703504,-1.1773576172,-1.203164068
 H,0,-1.6916124333,1.6296966889,-1.6422123789
 C,0,-2.9911718266,-1.5796175836,-3.5370748313
 H,0,0.0707649277,-0.4937805629,2.7885081422
 H,0,-3.334916797,-2.3866727368,-4.2119862037
 C,0,-0.6129174037,0.1183995478,2.1785561357
 H,0,-2.4450348652,3.14724379,-0.3056692409
 H,0,-0.3583242456,1.1742327352,2.3582449649
 H,0,-2.1108326499,-1.9563193902,-2.9996087309
 C,0,-2.0626542571,3.2149822571,0.7212685627
 H,0,-1.8792795961,4.2790256809,0.9462080963
 H,0,-3.3150478344,-3.0079708817,-1.5063797193
 Ru,0,-3.3586310295,0.0011607047,-0.7833930783
 H,0,-2.1930535483,-1.9914962614,1.2951501022
 N,0,-4.0312653479,-1.3331070181,-2.5092340326
 C,0,-4.2970937762,-2.6079774546,-1.8044635562
 C,0,-2.0559782533,-0.1975903292,2.5669018617
 H,0,-1.6027405794,-2.2592506087,2.9484839575
 H,0,-1.5914150082,2.7257820986,3.3499449026
 C,0,-2.3273587628,-1.6914408688,2.3409164922
 C,0,-3.0721633698,2.6567523703,1.7308503297
 P,0,-3.1886103092,0.7775161274,1.3833279821
 H,0,-4.7792284166,-3.3467744742,-2.4658537601
 C,0,-2.6217730862,3.0404738417,3.1391964799
 H,0,-5.0690442292,0.208317844,-3.4645665206
 H,0,-5.2909908227,-1.7110670943,-5.0860677548
 H,0,-2.6479752735,4.1400276745,3.2195859169
 C,0,-5.2882105971,-0.8000648577,-3.0936177171
 H,0,-1.7411111867,-0.7151959029,4.6230948498
 C,0,-4.3581105031,1.438729185,-1.3072805942
 C,0,-2.2795549307,0.0649312503,4.0598421458
 H,0,-4.8872950662,3.038002734,0.5310846412
 C,0,-4.4368677212,3.3096955221,1.4936463735
 H,0,-1.8925576835,1.0301440382,4.3987171809
 H,0,-4.3004086396,4.4038207963,1.4887767162
 C,0,-5.1018271646,-2.4080107767,-0.5498420686
 N,0,-4.7699032195,-1.3103209936,0.1454483663
 C,0,-5.9332386186,-1.6238845595,-4.1975941944
 H,0,-3.3329869239,-1.9824521788,2.6825344573
 H,0,-5.9902556986,-0.6705506643,-2.2566796945
 H,0,-3.284327055,2.6383602568,3.9183716469
 H,0,-6.2111460434,-2.6381655522,-3.8739825546
 C,0,-4.9082145545,0.2701825343,1.9634393546
 H,0,-6.8596874722,-1.1204398908,-4.5117707522
 H,0,-3.338945419,-0.0079207053,4.351677229
 C,0,-5.3406344105,-1.018359766,1.32537805
 C,0,-6.0659570422,-3.2888050295,-0.0743319734
 H,0,-5.1476087743,3.0758117869,2.3011460261
 H,0,-6.3342490961,-4.175792037,-0.6497235667
 H,0,-5.5772967516,1.0622639258,1.5905673448
 H,0,-5.0213617716,0.2340241968,3.0569414104
 C,0,-6.2998095193,-1.8755251983,1.8657674883
 C,0,-6.6640420156,-3.016511607,1.1561474502
 H,0,-6.7577367533,-1.6443650864,2.8284001764
 H,0,-7.4186626851,-3.6937572577,1.5602839468
 O,0,-4.9750519961,2.3402241635,-1.7279144577
 C,0,1.6653693724,4.7223810353,-0.9843956066
 H,0,2.2621148766,-0.4579925567,3.2106932552
 O,0,-0.8169827094,1.5001816642,-2.0501685688
 H,0,1.1527003695,-2.6395157573,1.5399723362
 O,0,2.7840703333,1.5743676174,1.6421167718
 H,0,-0.6149675801,0.5854372762,-1.7503050204
 C,0,1.7144395895,3.2398747901,-0.6447659335
 H,0,3.0912428139,-1.1429627601,4.6334106251
 C,0,2.8823003181,-1.2938954548,3.5606507332
 H,0,1.1527146104,-2.2556064572,-0.186954482
 H,0,2.309519332,-2.2281974468,3.4596106534
 C,0,1.5038652005,-2.9843141253,0.5555054731
 H,0,1.0207592947,-3.9547728804,0.3498631426
 H,0,3.800203218,3.2287193045,0.7393490963
 Ru,0,2.9519095662,0.42045403,-0.1094395411
 H,0,4.322972492,0.8434684988,2.5930807879
 N,0,2.9597477122,2.5252238652,-1.0176902816
 C,0,4.1179258408,3.1158188561,-0.309852343
 C,0,4.1984781853,-1.3267299665,2.7844152709
 H,0,5.0628150572,0.1523925396,4.0781070222
 H,0,3.0160794657,-4.1321330255,2.5051002989
 C,0,4.9242587821,0.0096687483,2.992175824
 C,0,3.0248386586,-3.1712085454,0.5295805561
 P,0,3.7726925127,-1.4539775657,0.9232359682
 H,0,4.3904164453,4.0991262548,-0.7303793234
 C,0,3.4034714595,-4.2966540949,1.4908707171
 H,0,4.0646904543,1.8685153261,-2.654401447
 H,0,1.5723148308,1.2832745592,-3.0562529098
 H,0,2.9498599559,-5.2310514164,1.1191232533
 C,0,3.232261706,2.5661201093,-2.4727579905
 H,0,5.4776831095,-2.1023192172,4.3206112916
 C,0,2.8374082148,-0.4424963121,-1.7060486938
 C,0,5.1117959766,-2.4280285967,3.3323782339
 H,0,3.2650756629,-2.85765631,-1.6428774289
 C,0,3.4568509374,-3.6119726701,-0.8717987403
 H,0,4.6106256985,-3.3906200911,3.4733917032
 H,0,2.8755155204,-4.5087837975,-1.1441945526
 C,0,5.3144898115,2.206720549,-0.3019081723
 N,0,5.0210077453,0.9099299204,-0.1356370976
 C,0,2.0538365955,2.2197452704,-3.3573411193
 H,0,5.9277499827,0.0038488466,2.5393758108
 H,0,3.6044904455,3.5761154472,-2.7370571841
 H,0,4.4893231254,-4.4590199982,1.5478515739
 H,0,1.2796916263,2.9984758471,-3.3462158282
 C,0,5.4910470334,-1.4392572606,0.143610758
 H,0,2.4093520283,2.1061779796,-4.3924936167
 H,0,6.0014860278,-2.5898797258,2.7044831481
 C,0,5.9769144002,-0.0261864218,-0.0177099232
 C,0,6.637695103,2.6311040775,-0.3766077523
 H,0,4.520809759,-3.8948083633,-0.9016958368
 H,0,6.8686704065,3.6871139802,-0.5218749168
 H,0,5.3474641268,-1.8642263351,-0.8630082828
 H,0,6.2355192018,-2.0621390344,0.6612579663
 C,0,7.3221002037,0.3394286522,-0.0670032217
 C,0,7.6493333686,1.6804479781,-0.2519104519
 H,0,8.0990145039,-0.4193095222,0.0345639612
 H,0,8.6965667899,1.9852063811,-0.3008983974
 H,0,1.9302355515,1.3477799473,2.0246984703
 O,0,2.6969854384,-0.9646765107,-2.7433867113
 H,0,0.68633615,5.1197095716,-0.6748620467
 H,0,1.7650153287,4.9174073618,-2.063614174
 H,0,2.4339774065,5.3092067121,-0.4574762803
 H,0,1.6242140607,3.0829371084,0.4392861391
 H,0,0.8832964044,2.7048360226,-1.1239157778
 H,0,1.3793448413,0.1570753133,-0.012812375
 Recover connectivity data from disk.
                           ----------------------------
                           !    Current Parameters    !
                           ! (Angstroms and Degrees)  !
 --------------------------                            --------------------------
 ! Name  Definition              Value                                          !
 --------------------------------------------------------------------------------
 ! R1    R(1,2)                  1.0999                                         !
 ! R2    R(2,3)                  1.1005                                         !
 ! R3    R(2,4)                  1.1006                                         !
 ! R4    R(2,10)                 1.5128                                         !
 ! R5    R(5,13)                 1.0984                                         !
 ! R6    R(6,8)                  1.3057                                         !
 ! R7    R(6,20)                 2.1261                                         !
 ! R8    R(7,17)                 1.0996                                         !
 ! R9    R(8,69)                 1.8509                                         !
 ! R10   R(8,128)                2.7831                                         !
 ! R11   R(9,66)                 0.9737                                         !
 ! R12   R(10,12)                1.1068                                         !
 ! R13   R(10,16)                1.0981                                         !
 ! R14   R(10,22)                1.4829                                         !
 ! R15   R(11,13)                1.1019                                         !
 ! R16   R(13,15)                1.1009                                         !
 ! R17   R(13,24)                1.5274                                         !
 ! R18   R(14,17)                1.0979                                         !
 ! R19   R(17,18)                1.1029                                         !
 ! R20   R(17,28)                1.533                                          !
 ! R21   R(19,23)                1.1015                                         !
 ! R22   R(20,29)                2.3079                                         !
 ! R23   R(20,37)                1.8276                                         !
 ! R24   R(20,44)                2.1388                                         !
 ! R25   R(21,27)                1.0962                                         !
 ! R26   R(22,23)                1.4808                                         !
 ! R27   R(22,35)                1.4851                                         !
 ! R28   R(23,30)                1.1026                                         !
 ! R29   R(23,43)                1.5039                                         !
 ! R30   R(24,27)                1.535                                          !
 ! R31   R(24,29)                1.9064                                         !
 ! R32   R(24,38)                1.5322                                         !
 ! R33   R(25,27)                1.103                                          !
 ! R34   R(26,31)                1.0978                                         !
 ! R35   R(27,46)                1.1012                                         !
 ! R36   R(28,29)                1.9146                                         !
 ! R37   R(28,31)                1.5276                                         !
 ! R38   R(28,40)                1.5313                                         !
 ! R39   R(29,50)                1.8844                                         !
 ! R40   R(31,34)                1.1028                                         !
 ! R41   R(31,48)                1.099                                          !
 ! R42   R(32,35)                1.0966                                         !
 ! R43   R(33,45)                1.0998                                         !
 ! R44   R(35,45)                1.521                                          !
 ! R45   R(35,47)                1.1                                            !
 ! R46   R(36,38)                1.1026                                         !
 ! R47   R(37,63)                1.1706                                         !
 ! R48   R(38,41)                1.0937                                         !
 ! R49   R(38,52)                1.1013                                         !
 ! R50   R(39,40)                1.0969                                         !
 ! R51   R(40,42)                1.1026                                         !
 ! R52   R(40,55)                1.1009                                         !
 ! R53   R(43,44)                1.3411                                         !
 ! R54   R(43,54)                1.3898                                         !
 ! R55   R(44,53)                1.3428                                         !
 ! R56   R(45,49)                1.1003                                         !
 ! R57   R(45,51)                1.1002                                         !
 ! R58   R(50,53)                1.5015                                         !
 ! R59   R(50,57)                1.1019                                         !
 ! R60   R(50,58)                1.0999                                         !
 ! R61   R(53,59)                1.3953                                         !
 ! R62   R(54,56)                1.0908                                         !
 ! R63   R(54,60)                1.395                                          !
 ! R64   R(59,60)                1.3921                                         !
 ! R65   R(59,61)                1.0908                                         !
 ! R66   R(60,62)                1.0915                                         !
 ! R67   R(64,70)                1.5217                                         !
 ! R68   R(64,123)               1.101                                          !
 ! R69   R(64,124)               1.1012                                         !
 ! R70   R(64,125)               1.1013                                         !
 ! R71   R(65,72)                1.0981                                         !
 ! R72   R(66,69)                0.9836                                         !
 ! R73   R(67,75)                1.1006                                         !
 ! R74   R(68,78)                2.1042                                         !
 ! R75   R(68,121)               0.9627                                         !
 ! R76   R(70,80)                1.4834                                         !
 ! R77   R(70,126)               1.0991                                         !
 ! R78   R(70,127)               1.0985                                         !
 ! R79   R(71,72)                1.1033                                         !
 ! R80   R(72,74)                1.1005                                         !
 ! R81   R(72,82)                1.5284                                         !
 ! R82   R(73,75)                1.098                                          !
 ! R83   R(75,76)                1.1034                                         !
 ! R84   R(75,86)                1.5326                                         !
 ! R85   R(77,81)                1.1021                                         !
 ! R86   R(78,87)                2.2921                                         !
 ! R87   R(78,95)                1.8185                                         !
 ! R88   R(78,102)               2.1264                                         !
 ! R89   R(78,128)               1.5974                                         !
 ! R90   R(79,85)                1.1027                                         !
 ! R91   R(80,81)                1.4803                                         !
 ! R92   R(80,93)                1.4809                                         !
 ! R93   R(81,88)                1.1036                                         !
 ! R94   R(81,101)               1.5028                                         !
 ! R95   R(82,85)                1.5349                                         !
 ! R96   R(82,87)                1.9135                                         !
 ! R97   R(82,96)                1.5321                                         !
 ! R98   R(83,85)                1.104                                          !
 ! R99   R(84,89)                1.0981                                         !
 ! R100  R(85,104)               1.1009                                         !
 ! R101  R(86,87)                1.9139                                         !
 ! R102  R(86,89)                1.5278                                         !
 ! R103  R(86,98)                1.5313                                         !
 ! R104  R(87,108)               1.887                                          !
 ! R105  R(89,92)                1.1032                                         !
 ! R106  R(89,106)               1.0994                                         !
 ! R107  R(90,93)                1.1012                                         !
 ! R108  R(91,103)               1.0952                                         !
 ! R109  R(93,103)               1.5137                                         !
 ! R110  R(93,105)               1.1084                                         !
 ! R111  R(94,96)                1.103                                          !
 ! R112  R(95,122)               1.1698                                         !
 ! R113  R(96,99)                1.0944                                         !
 ! R114  R(96,110)               1.1009                                         !
 ! R115  R(97,98)                1.0956                                         !
 ! R116  R(98,100)               1.1029                                         !
 ! R117  R(98,113)               1.1013                                         !
 ! R118  R(101,102)              1.3399                                         !
 ! R119  R(101,112)              1.3916                                         !
 ! R120  R(102,111)              1.3431                                         !
 ! R121  R(103,107)              1.0981                                         !
 ! R122  R(103,109)              1.1004                                         !
 ! R123  R(108,111)              1.503                                          !
 ! R124  R(108,115)              1.102                                          !
 ! R125  R(108,116)              1.1001                                         !
 ! R126  R(111,117)              1.3949                                         !
 ! R127  R(112,114)              1.0907                                         !
 ! R128  R(112,118)              1.3938                                         !
 ! R129  R(117,118)              1.3927                                         !
 ! R130  R(117,119)              1.0907                                         !
 ! R131  R(118,120)              1.0918                                         !
 ! A1    A(1,2,3)              107.4554                                         !
 ! A2    A(1,2,4)              107.2733                                         !
 ! A3    A(1,2,10)             108.6036                                         !
 ! A4    A(3,2,4)              109.4089                                         !
 ! A5    A(3,2,10)             112.9204                                         !
 ! A6    A(4,2,10)             110.9582                                         !
 ! A7    A(8,6,20)             112.5399                                         !
 ! A8    A(6,8,69)             116.0701                                         !
 ! A9    A(6,8,128)            126.11                                           !
 ! A10   A(69,8,128)            67.2028                                         !
 ! A11   A(2,10,12)            110.7771                                         !
 ! A12   A(2,10,16)            109.3345                                         !
 ! A13   A(2,10,22)            113.8473                                         !
 ! A14   A(12,10,16)           107.2961                                         !
 ! A15   A(12,10,22)           109.0285                                         !
 ! A16   A(16,10,22)           106.2649                                         !
 ! A17   A(5,13,11)            107.3654                                         !
 ! A18   A(5,13,15)            107.9849                                         !
 ! A19   A(5,13,24)            112.5126                                         !
 ! A20   A(11,13,15)           107.3972                                         !
 ! A21   A(11,13,24)           109.2994                                         !
 ! A22   A(15,13,24)           112.0494                                         !
 ! A23   A(7,17,14)            107.5581                                         !
 ! A24   A(7,17,18)            108.0736                                         !
 ! A25   A(7,17,28)            112.6855                                         !
 ! A26   A(14,17,18)           107.9506                                         !
 ! A27   A(14,17,28)           111.3575                                         !
 ! A28   A(18,17,28)           109.0559                                         !
 ! A29   A(6,20,29)             96.6737                                         !
 ! A30   A(6,20,44)             89.5199                                         !
 ! A31   A(29,20,37)            92.5681                                         !
 ! A32   A(29,20,44)            81.2086                                         !
 ! A33   A(37,20,44)           104.2387                                         !
 ! A34   A(10,22,23)           108.2212                                         !
 ! A35   A(10,22,35)           112.368                                          !
 ! A36   A(23,22,35)           110.1428                                         !
 ! A37   A(19,23,22)           106.3435                                         !
 ! A38   A(19,23,30)           107.9909                                         !
 ! A39   A(19,23,43)           107.4336                                         !
 ! A40   A(22,23,30)           111.7087                                         !
 ! A41   A(22,23,43)           112.25                                           !
 ! A42   A(30,23,43)           110.8263                                         !
 ! A43   A(13,24,27)           109.3247                                         !
 ! A44   A(13,24,29)           107.3153                                         !
 ! A45   A(13,24,38)           110.4954                                         !
 ! A46   A(27,24,29)           107.5374                                         !
 ! A47   A(27,24,38)           106.5219                                         !
 ! A48   A(29,24,38)           115.5044                                         !
 ! A49   A(21,27,24)           112.6536                                         !
 ! A50   A(21,27,25)           107.7031                                         !
 ! A51   A(21,27,46)           109.6023                                         !
 ! A52   A(24,27,25)           107.6824                                         !
 ! A53   A(24,27,46)           111.8977                                         !
 ! A54   A(25,27,46)           107.0381                                         !
 ! A55   A(17,28,29)           106.1367                                         !
 ! A56   A(17,28,31)           108.756                                          !
 ! A57   A(17,28,40)           109.2439                                         !
 ! A58   A(29,28,31)           115.5831                                         !
 ! A59   A(29,28,40)           109.6446                                         !
 ! A60   A(31,28,40)           107.3648                                         !
 ! A61   A(20,29,24)           117.0369                                         !
 ! A62   A(20,29,28)           120.3352                                         !
 ! A63   A(20,29,50)            97.5405                                         !
 ! A64   A(24,29,28)           110.6833                                         !
 ! A65   A(24,29,50)           102.3173                                         !
 ! A66   A(28,29,50)           105.3                                            !
 ! A67   A(26,31,28)           112.4402                                         !
 ! A68   A(26,31,34)           107.1053                                         !
 ! A69   A(26,31,48)           108.9568                                         !
 ! A70   A(28,31,34)           108.0987                                         !
 ! A71   A(28,31,48)           112.5808                                         !
 ! A72   A(34,31,48)           107.3861                                         !
 ! A73   A(22,35,32)           107.0983                                         !
 ! A74   A(22,35,45)           116.7517                                         !
 ! A75   A(22,35,47)           106.4408                                         !
 ! A76   A(32,35,45)           109.7121                                         !
 ! A77   A(32,35,47)           106.0607                                         !
 ! A78   A(45,35,47)           110.2024                                         !
 ! A79   A(24,38,36)           107.7733                                         !
 ! A80   A(24,38,41)           113.6693                                         !
 ! A81   A(24,38,52)           112.7825                                         !
 ! A82   A(36,38,41)           107.0571                                         !
 ! A83   A(36,38,52)           106.7136                                         !
 ! A84   A(41,38,52)           108.4606                                         !
 ! A85   A(28,40,39)           113.3447                                         !
 ! A86   A(28,40,42)           108.27                                           !
 ! A87   A(28,40,55)           111.7869                                         !
 ! A88   A(39,40,42)           107.0212                                         !
 ! A89   A(39,40,55)           109.0222                                         !
 ! A90   A(42,40,55)           107.0952                                         !
 ! A91   A(23,43,44)           114.1367                                         !
 ! A92   A(23,43,54)           124.9171                                         !
 ! A93   A(44,43,54)           120.8677                                         !
 ! A94   A(20,44,43)           116.1075                                         !
 ! A95   A(20,44,53)           121.9194                                         !
 ! A96   A(43,44,53)           121.8922                                         !
 ! A97   A(33,45,35)           112.436                                          !
 ! A98   A(33,45,49)           108.1812                                         !
 ! A99   A(33,45,51)           107.2975                                         !
 ! A100  A(35,45,49)           113.1357                                         !
 ! A101  A(35,45,51)           108.4527                                         !
 ! A102  A(49,45,51)           107.0443                                         !
 ! A103  A(29,50,53)           111.2866                                         !
 ! A104  A(29,50,57)           104.8573                                         !
 ! A105  A(29,50,58)           114.1277                                         !
 ! A106  A(53,50,57)           107.351                                          !
 ! A107  A(53,50,58)           111.385                                          !
 ! A108  A(57,50,58)           107.3129                                         !
 ! A109  A(44,53,50)           115.9498                                         !
 ! A110  A(44,53,59)           119.9289                                         !
 ! A111  A(50,53,59)           124.0979                                         !
 ! A112  A(43,54,56)           120.3651                                         !
 ! A113  A(43,54,60)           118.394                                          !
 ! A114  A(56,54,60)           121.2368                                         !
 ! A115  A(53,59,60)           119.0743                                         !
 ! A116  A(53,59,61)           120.0141                                         !
 ! A117  A(60,59,61)           120.9105                                         !
 ! A118  A(54,60,59)           119.8303                                         !
 ! A119  A(54,60,62)           120.125                                          !
 ! A120  A(59,60,62)           120.0442                                         !
 ! A121  A(70,64,123)          108.5126                                         !
 ! A122  A(70,64,124)          112.8521                                         !
 ! A123  A(70,64,125)          112.945                                          !
 ! A124  A(123,64,124)         106.9822                                         !
 ! A125  A(123,64,125)         107.0859                                         !
 ! A126  A(124,64,125)         108.1428                                         !
 ! A127  A(9,66,69)            100.3959                                         !
 ! A128  A(78,68,121)          105.8121                                         !
 ! A129  A(64,70,80)           116.1234                                         !
 ! A130  A(64,70,126)          110.8921                                         !
 ! A131  A(64,70,127)          110.6571                                         !
 ! A132  A(80,70,126)          104.3641                                         !
 ! A133  A(80,70,127)          106.91                                           !
 ! A134  A(126,70,127)         107.3719                                         !
 ! A135  A(65,72,71)           108.2217                                         !
 ! A136  A(65,72,74)           108.8467                                         !
 ! A137  A(65,72,82)           109.9292                                         !
 ! A138  A(71,72,74)           107.6961                                         !
 ! A139  A(71,72,82)           109.4922                                         !
 ! A140  A(74,72,82)           112.5398                                         !
 ! A141  A(67,75,73)           107.1506                                         !
 ! A142  A(67,75,76)           107.6102                                         !
 ! A143  A(67,75,86)           111.7134                                         !
 ! A144  A(73,75,76)           108.522                                          !
 ! A145  A(73,75,86)           112.7601                                         !
 ! A146  A(76,75,86)           108.9112                                         !
 ! A147  A(68,78,87)            95.8539                                         !
 ! A148  A(68,78,102)           87.8014                                         !
 ! A149  A(68,78,128)           87.7959                                         !
 ! A150  A(87,78,95)            91.7215                                         !
 ! A151  A(87,78,102)           81.1034                                         !
 ! A152  A(87,78,128)          100.9784                                         !
 ! A153  A(95,78,102)           99.1888                                         !
 ! A154  A(95,78,128)           85.0021                                         !
 ! A155  A(70,80,81)           110.1447                                         !
 ! A156  A(70,80,93)           112.8409                                         !
 ! A157  A(81,80,93)           108.3509                                         !
 ! A158  A(77,81,80)           105.6972                                         !
 ! A159  A(77,81,88)           110.0399                                         !
 ! A160  A(77,81,101)          106.6485                                         !
 ! A161  A(80,81,88)           111.4971                                         !
 ! A162  A(80,81,101)          112.5912                                         !
 ! A163  A(88,81,101)          110.1463                                         !
 ! A164  A(72,82,85)           108.648                                          !
 ! A165  A(72,82,87)           107.6861                                         !
 ! A166  A(72,82,96)           110.3135                                         !
 ! A167  A(85,82,87)           107.1441                                         !
 ! A168  A(85,82,96)           107.1919                                         !
 ! A169  A(87,82,96)           115.6408                                         !
 ! A170  A(79,85,82)           110.58                                           !
 ! A171  A(79,85,83)           109.0668                                         !
 ! A172  A(79,85,104)          110.6189                                         !
 ! A173  A(82,85,83)           107.7611                                         !
 ! A174  A(82,85,104)          111.7606                                         !
 ! A175  A(83,85,104)          106.9085                                         !
 ! A176  A(75,86,87)           105.9549                                         !
 ! A177  A(75,86,89)           108.9739                                         !
 ! A178  A(75,86,98)           109.3029                                         !
 ! A179  A(87,86,89)           115.766                                          !
 ! A180  A(87,86,98)           109.6488                                         !
 ! A181  A(89,86,98)           107.0903                                         !
 ! A182  A(78,87,82)           117.6147                                         !
 ! A183  A(78,87,86)           120.0762                                         !
 ! A184  A(78,87,108)           97.6759                                         !
 ! A185  A(82,87,86)           110.2836                                         !
 ! A186  A(82,87,108)          101.4616                                         !
 ! A187  A(86,87,108)          106.1315                                         !
 ! A188  A(84,89,86)           112.5418                                         !
 ! A189  A(84,89,92)           107.0423                                         !
 ! A190  A(84,89,106)          108.826                                          !
 ! A191  A(86,89,92)           108.0599                                         !
 ! A192  A(86,89,106)          112.7174                                         !
 ! A193  A(92,89,106)          107.3667                                         !
 ! A194  A(80,93,90)           106.4802                                         !
 ! A195  A(80,93,103)          115.1263                                         !
 ! A196  A(80,93,105)          108.7388                                         !
 ! A197  A(90,93,103)          110.3136                                         !
 ! A198  A(90,93,105)          106.5034                                         !
 ! A199  A(103,93,105)         109.3066                                         !
 ! A200  A(82,96,94)           107.8143                                         !
 ! A201  A(82,96,99)           113.9134                                         !
 ! A202  A(82,96,110)          112.5474                                         !
 ! A203  A(94,96,99)           107.23                                           !
 ! A204  A(94,96,110)          106.639                                          !
 ! A205  A(99,96,110)          108.3168                                         !
 ! A206  A(86,98,97)           113.3618                                         !
 ! A207  A(86,98,100)          108.1422                                         !
 ! A208  A(86,98,113)          111.7973                                         !
 ! A209  A(97,98,100)          107.0827                                         !
 ! A210  A(97,98,113)          109.0756                                         !
 ! A211  A(100,98,113)         107.0785                                         !
 ! A212  A(81,101,102)         114.3135                                         !
 ! A213  A(81,101,112)         124.9135                                         !
 ! A214  A(102,101,112)        120.6679                                         !
 ! A215  A(78,102,101)         115.9404                                         !
 ! A216  A(78,102,111)         122.0742                                         !
 ! A217  A(101,102,111)        121.9743                                         !
 ! A218  A(91,103,93)          112.1662                                         !
 ! A219  A(91,103,107)         107.0755                                         !
 ! A220  A(91,103,109)         108.2049                                         !
 ! A221  A(93,103,107)         112.3738                                         !
 ! A222  A(93,103,109)         108.7747                                         !
 ! A223  A(107,103,109)        108.0887                                         !
 ! A224  A(87,108,111)         110.2468                                         !
 ! A225  A(87,108,115)         104.8168                                         !
 ! A226  A(87,108,116)         114.6725                                         !
 ! A227  A(111,108,115)        107.8566                                         !
 ! A228  A(111,108,116)        111.3514                                         !
 ! A229  A(115,108,116)        107.4358                                         !
 ! A230  A(102,111,108)        115.7622                                         !
 ! A231  A(102,111,117)        120.0377                                         !
 ! A232  A(108,111,117)        124.1941                                         !
 ! A233  A(101,112,114)        120.25                                           !
 ! A234  A(101,112,118)        118.5113                                         !
 ! A235  A(114,112,118)        121.237                                          !
 ! A236  A(111,117,118)        118.9259                                         !
 ! A237  A(111,117,119)        120.0873                                         !
 ! A238  A(118,117,119)        120.9864                                         !
 ! A239  A(112,118,117)        119.8735                                         !
 ! A240  A(112,118,120)        120.1187                                         !
 ! A241  A(117,118,120)        120.0077                                         !
 ! A242  A(8,128,78)           143.8567                                         !
 ! A243  L(6,20,37,29,-1)      189.2418                                         !
 ! A244  L(20,37,63,2,-1)      175.5816                                         !
 ! A245  L(8,69,66,1,-1)       173.9554                                         !
 ! A246  L(68,78,95,87,-1)     187.5754                                         !
 ! A247  L(102,78,128,68,-1)   175.5973                                         !
 ! A248  L(78,95,122,4,-1)     176.3534                                         !
 ! A249  L(6,20,37,29,-2)      167.5097                                         !
 ! A250  L(20,37,63,2,-2)      179.8788                                         !
 ! A251  L(8,69,66,1,-2)       165.001                                          !
 ! A252  L(68,78,95,87,-2)     174.1248                                         !
 ! A253  L(102,78,128,68,-2)   178.3639                                         !
 ! A254  L(78,95,122,4,-2)     179.4643                                         !
 ! D1    D(1,2,10,12)          -59.9464                                         !
 ! D2    D(1,2,10,16)           58.0956                                         !
 ! D3    D(1,2,10,22)          176.7565                                         !
 ! D4    D(3,2,10,12)           59.1292                                         !
 ! D5    D(3,2,10,16)          177.1712                                         !
 ! D6    D(3,2,10,22)          -64.1679                                         !
 ! D7    D(4,2,10,12)         -177.6194                                         !
 ! D8    D(4,2,10,16)          -59.5774                                         !
 ! D9    D(4,2,10,22)           59.0835                                         !
 ! D10   D(20,6,8,69)           10.2706                                         !
 ! D11   D(20,6,8,128)          90.0734                                         !
 ! D12   D(8,6,20,29)         -104.1775                                         !
 ! D13   D(8,6,20,44)          174.7315                                         !
 ! D14   D(6,8,66,9)             4.2034                                         !
 ! D15   D(128,8,66,9)        -118.3857                                         !
 ! D16   D(6,8,128,78)         156.7275                                         !
 ! D17   D(69,8,128,78)        -96.8052                                         !
 ! D18   D(2,10,22,23)        -179.2295                                         !
 ! D19   D(2,10,22,35)          58.9333                                         !
 ! D20   D(12,10,22,23)         56.5266                                         !
 ! D21   D(12,10,22,35)        -65.3106                                         !
 ! D22   D(16,10,22,23)        -58.8286                                         !
 ! D23   D(16,10,22,35)        179.3342                                         !
 ! D24   D(5,13,24,27)          60.1844                                         !
 ! D25   D(5,13,24,29)         -56.1625                                         !
 ! D26   D(5,13,24,38)         177.1083                                         !
 ! D27   D(11,13,24,27)        -58.9897                                         !
 ! D28   D(11,13,24,29)       -175.3365                                         !
 ! D29   D(11,13,24,38)         57.9343                                         !
 ! D30   D(15,13,24,27)       -177.9125                                         !
 ! D31   D(15,13,24,29)         65.7407                                         !
 ! D32   D(15,13,24,38)        -60.9885                                         !
 ! D33   D(7,17,28,29)         -54.1874                                         !
 ! D34   D(7,17,28,31)          70.7715                                         !
 ! D35   D(7,17,28,40)        -172.3314                                         !
 ! D36   D(14,17,28,29)         66.7792                                         !
 ! D37   D(14,17,28,31)       -168.2619                                         !
 ! D38   D(14,17,28,40)        -51.3647                                         !
 ! D39   D(18,17,28,29)       -174.1964                                         !
 ! D40   D(18,17,28,31)        -49.2375                                         !
 ! D41   D(18,17,28,40)         67.6596                                         !
 ! D42   D(6,20,29,24)          -6.4244                                         !
 ! D43   D(6,20,29,28)         132.8709                                         !
 ! D44   D(6,20,29,50)        -114.432                                          !
 ! D45   D(37,20,29,24)       -173.9341                                         !
 ! D46   D(37,20,29,28)        -34.6388                                         !
 ! D47   D(37,20,29,50)         78.0584                                         !
 ! D48   D(44,20,29,24)         82.0495                                         !
 ! D49   D(44,20,29,28)       -138.6552                                         !
 ! D50   D(44,20,29,50)        -25.9581                                         !
 ! D51   D(6,20,44,43)         -65.9363                                         !
 ! D52   D(6,20,44,53)         117.2778                                         !
 ! D53   D(29,20,44,43)       -162.7647                                         !
 ! D54   D(29,20,44,53)         20.4494                                         !
 ! D55   D(37,20,44,43)        106.8038                                         !
 ! D56   D(37,20,44,53)        -69.9821                                         !
 ! D57   D(10,22,23,19)         49.9811                                         !
 ! D58   D(10,22,23,30)        -67.6122                                         !
 ! D59   D(10,22,23,43)        167.1943                                         !
 ! D60   D(35,22,23,19)        173.1762                                         !
 ! D61   D(35,22,23,30)         55.583                                          !
 ! D62   D(35,22,23,43)        -69.6106                                         !
 ! D63   D(10,22,35,32)        -67.8205                                         !
 ! D64   D(10,22,35,45)         55.5635                                         !
 ! D65   D(10,22,35,47)        179.0655                                         !
 ! D66   D(23,22,35,32)        171.4424                                         !
 ! D67   D(23,22,35,45)        -65.1736                                         !
 ! D68   D(23,22,35,47)         58.3285                                         !
 ! D69   D(19,23,43,44)         77.648                                          !
 ! D70   D(19,23,43,54)        -99.1409                                         !
 ! D71   D(22,23,43,44)        -38.9125                                         !
 ! D72   D(22,23,43,54)        144.2986                                         !
 ! D73   D(30,23,43,44)       -164.5887                                         !
 ! D74   D(30,23,43,54)         18.6224                                         !
 ! D75   D(13,24,27,21)        -60.4778                                         !
 ! D76   D(13,24,27,25)         58.1358                                         !
 ! D77   D(13,24,27,46)        175.4968                                         !
 ! D78   D(29,24,27,21)         55.7279                                         !
 ! D79   D(29,24,27,25)        174.3415                                         !
 ! D80   D(29,24,27,46)        -68.2975                                         !
 ! D81   D(38,24,27,21)       -179.8866                                         !
 ! D82   D(38,24,27,25)        -61.2731                                         !
 ! D83   D(38,24,27,46)         56.0879                                         !
 ! D84   D(13,24,29,20)         73.9714                                         !
 ! D85   D(13,24,29,28)        -69.0406                                         !
 ! D86   D(13,24,29,50)        179.1739                                         !
 ! D87   D(27,24,29,20)        -43.5479                                         !
 ! D88   D(27,24,29,28)        173.4401                                         !
 ! D89   D(27,24,29,50)         61.6546                                         !
 ! D90   D(38,24,29,20)       -162.3122                                         !
 ! D91   D(38,24,29,28)         54.6758                                         !
 ! D92   D(38,24,29,50)        -57.1097                                         !
 ! D93   D(13,24,38,36)        -70.8925                                         !
 ! D94   D(13,24,38,41)         47.5859                                         !
 ! D95   D(13,24,38,52)        171.579                                          !
 ! D96   D(27,24,38,36)         47.7523                                         !
 ! D97   D(27,24,38,41)        166.2306                                         !
 ! D98   D(27,24,38,52)        -69.7762                                         !
 ! D99   D(29,24,38,36)        167.0766                                         !
 ! D100  D(29,24,38,41)        -74.445                                          !
 ! D101  D(29,24,38,52)         49.5481                                         !
 ! D102  D(17,28,29,20)        -44.862                                          !
 ! D103  D(17,28,29,24)         96.7555                                         !
 ! D104  D(17,28,29,50)       -153.387                                          !
 ! D105  D(31,28,29,20)       -165.5012                                         !
 ! D106  D(31,28,29,24)        -23.8836                                         !
 ! D107  D(31,28,29,50)         85.9739                                         !
 ! D108  D(40,28,29,20)         73.016                                          !
 ! D109  D(40,28,29,24)       -145.3664                                         !
 ! D110  D(40,28,29,50)        -35.5089                                         !
 ! D111  D(17,28,31,26)        -54.3565                                         !
 ! D112  D(17,28,31,34)         63.6626                                         !
 ! D113  D(17,28,31,48)       -177.8883                                         !
 ! D114  D(29,28,31,26)         64.8523                                         !
 ! D115  D(29,28,31,34)       -177.1287                                         !
 ! D116  D(29,28,31,48)        -58.6795                                         !
 ! D117  D(40,28,31,26)       -172.4481                                         !
 ! D118  D(40,28,31,34)        -54.429                                          !
 ! D119  D(40,28,31,48)         64.0202                                         !
 ! D120  D(17,28,40,39)         66.3371                                         !
 ! D121  D(17,28,40,42)        -52.2331                                         !
 ! D122  D(17,28,40,55)       -169.9651                                         !
 ! D123  D(29,28,40,39)        -49.5873                                         !
 ! D124  D(29,28,40,42)       -168.1575                                         !
 ! D125  D(29,28,40,55)         74.1105                                         !
 ! D126  D(31,28,40,39)       -175.8882                                         !
 ! D127  D(31,28,40,42)         65.5416                                         !
 ! D128  D(31,28,40,55)        -52.1903                                         !
 ! D129  D(20,29,50,53)         35.0175                                         !
 ! D130  D(20,29,50,57)        -80.7353                                         !
 ! D131  D(20,29,50,58)        162.1241                                         !
 ! D132  D(24,29,50,53)        -84.8659                                         !
 ! D133  D(24,29,50,57)        159.3813                                         !
 ! D134  D(24,29,50,58)         42.2407                                         !
 ! D135  D(28,29,50,53)        159.3779                                         !
 ! D136  D(28,29,50,57)         43.6251                                         !
 ! D137  D(28,29,50,58)        -73.5155                                         !
 ! D138  D(22,35,45,33)        -62.8516                                         !
 ! D139  D(22,35,45,49)         60.0722                                         !
 ! D140  D(22,35,45,51)        178.6657                                         !
 ! D141  D(32,35,45,33)         59.1779                                         !
 ! D142  D(32,35,45,49)       -177.8984                                         !
 ! D143  D(32,35,45,51)        -59.3049                                         !
 ! D144  D(47,35,45,33)        175.6002                                         !
 ! D145  D(47,35,45,49)        -61.4761                                         !
 ! D146  D(47,35,45,51)         57.1174                                         !
 ! D147  D(23,43,44,20)          6.7378                                         !
 ! D148  D(23,43,44,53)       -176.4752                                         !
 ! D149  D(54,43,44,20)       -176.3296                                         !
 ! D150  D(54,43,44,53)          0.4574                                         !
 ! D151  D(23,43,54,56)         -3.813                                          !
 ! D152  D(23,43,54,60)        175.4611                                         !
 ! D153  D(44,43,54,56)        179.6012                                         !
 ! D154  D(44,43,54,60)         -1.1248                                         !
 ! D155  D(20,44,53,50)         -1.1196                                         !
 ! D156  D(20,44,53,59)        177.1941                                         !
 ! D157  D(43,44,53,50)       -177.7202                                         !
 ! D158  D(43,44,53,59)          0.5936                                         !
 ! D159  D(29,50,53,44)        -25.1063                                         !
 ! D160  D(29,50,53,59)        156.6584                                         !
 ! D161  D(57,50,53,44)         89.1009                                         !
 ! D162  D(57,50,53,59)        -89.1343                                         !
 ! D163  D(58,50,53,44)       -153.6938                                         !
 ! D164  D(58,50,53,59)         28.071                                          !
 ! D165  D(44,53,59,60)         -0.9369                                         !
 ! D166  D(44,53,59,61)        179.4474                                         !
 ! D167  D(50,53,59,60)        177.2321                                         !
 ! D168  D(50,53,59,61)         -2.3836                                         !
 ! D169  D(43,54,60,59)          0.7533                                         !
 ! D170  D(43,54,60,62)       -179.4923                                         !
 ! D171  D(56,54,60,59)       -179.9793                                         !
 ! D172  D(56,54,60,62)         -0.2249                                         !
 ! D173  D(53,59,60,54)          0.2513                                         !
 ! D174  D(53,59,60,62)       -179.5033                                         !
 ! D175  D(61,59,60,54)        179.8634                                         !
 ! D176  D(61,59,60,62)          0.1089                                         !
 ! D177  D(123,64,70,80)       178.8361                                         !
 ! D178  D(123,64,70,126)      -62.2862                                         !
 ! D179  D(123,64,70,127)       56.7557                                         !
 ! D180  D(124,64,70,80)        60.4533                                         !
 ! D181  D(124,64,70,126)      179.331                                          !
 ! D182  D(124,64,70,127)      -61.6271                                         !
 ! D183  D(125,64,70,80)       -62.5954                                         !
 ! D184  D(125,64,70,126)       56.2823                                         !
 ! D185  D(125,64,70,127)      175.3242                                         !
 ! D186  D(121,68,78,87)       -85.1023                                         !
 ! D187  D(121,68,78,102)     -165.9236                                         !
 ! D188  D(121,68,78,128)       15.7125                                         !
 ! D189  D(64,70,80,81)         61.0214                                         !
 ! D190  D(64,70,80,93)        -60.2032                                         !
 ! D191  D(126,70,80,81)       -61.3622                                         !
 ! D192  D(126,70,80,93)       177.4131                                         !
 ! D193  D(127,70,80,81)      -174.9398                                         !
 ! D194  D(127,70,80,93)        63.8356                                         !
 ! D195  D(65,72,82,85)         58.7895                                         !
 ! D196  D(65,72,82,87)        -56.9419                                         !
 ! D197  D(65,72,82,96)        176.0193                                         !
 ! D198  D(71,72,82,85)        -59.9726                                         !
 ! D199  D(71,72,82,87)       -175.704                                          !
 ! D200  D(71,72,82,96)         57.2573                                         !
 ! D201  D(74,72,82,85)       -179.7098                                         !
 ! D202  D(74,72,82,87)         64.5588                                         !
 ! D203  D(74,72,82,96)        -62.4799                                         !
 ! D204  D(67,75,86,87)        -60.3366                                         !
 ! D205  D(67,75,86,89)         64.86                                           !
 ! D206  D(67,75,86,98)       -178.4159                                         !
 ! D207  D(73,75,86,87)         60.4123                                         !
 ! D208  D(73,75,86,89)       -174.3911                                         !
 ! D209  D(73,75,86,98)        -57.6669                                         !
 ! D210  D(76,75,86,87)       -179.0648                                         !
 ! D211  D(76,75,86,89)        -53.8682                                         !
 ! D212  D(76,75,86,98)         62.856                                          !
 ! D213  D(68,78,87,82)         -6.5865                                         !
 ! D214  D(68,78,87,86)        132.4438                                         !
 ! D215  D(68,78,87,108)      -113.8512                                         !
 ! D216  D(95,78,87,82)        179.2887                                         !
 ! D217  D(95,78,87,86)        -41.681                                          !
 ! D218  D(95,78,87,108)        72.024                                          !
 ! D219  D(102,78,87,82)        80.2559                                         !
 ! D220  D(102,78,87,86)      -140.7138                                         !
 ! D221  D(102,78,87,108)      -27.0089                                         !
 ! D222  D(128,78,87,82)       -95.4696                                         !
 ! D223  D(128,78,87,86)        43.5607                                         !
 ! D224  D(128,78,87,108)      157.2657                                         !
 ! D225  D(68,78,102,101)      -64.0519                                         !
 ! D226  D(68,78,102,111)      117.1408                                         !
 ! D227  D(87,78,102,101)     -160.328                                          !
 ! D228  D(87,78,102,111)       20.8647                                         !
 ! D229  D(95,78,102,101)      109.3579                                         !
 ! D230  D(95,78,102,111)      -69.4494                                         !
 ! D231  D(101,102,128,8)      117.6471                                         !
 ! D232  D(111,102,128,8)      -62.6955                                         !
 ! D233  D(68,78,128,8)       -177.716                                          !
 ! D234  D(87,78,128,8)        -82.1781                                         !
 ! D235  D(95,78,128,8)          8.6099                                         !
 ! D236  D(70,80,81,77)         46.3474                                         !
 ! D237  D(70,80,81,88)        -73.2068                                         !
 ! D238  D(70,80,81,101)       162.4044                                         !
 ! D239  D(93,80,81,77)        170.2167                                         !
 ! D240  D(93,80,81,88)         50.6625                                         !
 ! D241  D(93,80,81,101)       -73.7263                                         !
 ! D242  D(70,80,93,90)       -170.3196                                         !
 ! D243  D(70,80,93,103)       -47.73                                           !
 ! D244  D(70,80,93,105)        75.2754                                         !
 ! D245  D(81,80,93,90)         67.4429                                         !
 ! D246  D(81,80,93,103)      -169.9676                                         !
 ! D247  D(81,80,93,105)       -46.9622                                         !
 ! D248  D(77,81,101,102)       76.7513                                         !
 ! D249  D(77,81,101,112)      -99.5259                                         !
 ! D250  D(80,81,101,102)      -38.7341                                         !
 ! D251  D(80,81,101,112)      144.9886                                         !
 ! D252  D(88,81,101,102)     -163.8632                                         !
 ! D253  D(88,81,101,112)       19.8595                                         !
 ! D254  D(72,82,85,79)        -62.1495                                         !
 ! D255  D(72,82,85,83)         56.9728                                         !
 ! D256  D(72,82,85,104)       174.1469                                         !
 ! D257  D(87,82,85,79)         53.9319                                         !
 ! D258  D(87,82,85,83)        173.0542                                         !
 ! D259  D(87,82,85,104)       -69.7718                                         !
 ! D260  D(96,82,85,79)        178.6453                                         !
 ! D261  D(96,82,85,83)        -62.2324                                         !
 ! D262  D(96,82,85,104)        54.9417                                         !
 ! D263  D(72,82,87,78)         73.629                                          !
 ! D264  D(72,82,87,86)        -69.1499                                         !
 ! D265  D(72,82,87,108)       178.6914                                         !
 ! D266  D(85,82,87,78)        -43.0882                                         !
 ! D267  D(85,82,87,86)        174.1328                                         !
 ! D268  D(85,82,87,108)        61.9742                                         !
 ! D269  D(96,82,87,78)       -162.506                                          !
 ! D270  D(96,82,87,86)         54.715                                          !
 ! D271  D(96,82,87,108)       -57.4436                                         !
 ! D272  D(72,82,96,94)        -71.5931                                         !
 ! D273  D(72,82,96,99)         47.2773                                         !
 ! D274  D(72,82,96,110)       171.0799                                         !
 ! D275  D(85,82,96,94)         46.5344                                         !
 ! D276  D(85,82,96,99)        165.4048                                         !
 ! D277  D(85,82,96,110)       -70.7926                                         !
 ! D278  D(87,82,96,94)        165.926                                          !
 ! D279  D(87,82,96,99)        -75.2036                                         !
 ! D280  D(87,82,96,110)        48.599                                          !
 ! D281  D(75,86,87,78)        -45.3009                                         !
 ! D282  D(75,86,87,82)         96.4282                                         !
 ! D283  D(75,86,87,108)      -154.4592                                         !
 ! D284  D(89,86,87,78)       -166.1977                                         !
 ! D285  D(89,86,87,82)        -24.4686                                         !
 ! D286  D(89,86,87,108)        84.6441                                         !
 ! D287  D(98,86,87,78)         72.5479                                         !
 ! D288  D(98,86,87,82)       -145.723                                          !
 ! D289  D(98,86,87,108)       -36.6103                                         !
 ! D290  D(75,86,89,84)        -54.3835                                         !
 ! D291  D(75,86,89,92)         63.5929                                         !
 ! D292  D(75,86,89,106)      -177.9256                                         !
 ! D293  D(87,86,89,84)         64.8729                                         !
 ! D294  D(87,86,89,92)       -177.1506                                         !
 ! D295  D(87,86,89,106)       -58.6691                                         !
 ! D296  D(98,86,89,84)       -172.5095                                         !
 ! D297  D(98,86,89,92)        -54.533                                          !
 ! D298  D(98,86,89,106)        63.9485                                         !
 ! D299  D(75,86,98,97)         64.2181                                         !
 ! D300  D(75,86,98,100)       -54.3536                                         !
 ! D301  D(75,86,98,113)      -171.9915                                         !
 ! D302  D(87,86,98,97)        -51.5237                                         !
 ! D303  D(87,86,98,100)      -170.0954                                         !
 ! D304  D(87,86,98,113)        72.2667                                         !
 ! D305  D(89,86,98,97)       -177.8706                                         !
 ! D306  D(89,86,98,100)        63.5577                                         !
 ! D307  D(89,86,98,113)       -54.0801                                         !
 ! D308  D(78,87,108,111)       36.4717                                         !
 ! D309  D(78,87,108,115)      -79.3545                                         !
 ! D310  D(78,87,108,116)      163.0907                                         !
 ! D311  D(82,87,108,111)      -83.8303                                         !
 ! D312  D(82,87,108,115)      160.3435                                         !
 ! D313  D(82,87,108,116)       42.7887                                         !
 ! D314  D(86,87,108,111)      160.9012                                         !
 ! D315  D(86,87,108,115)       45.0749                                         !
 ! D316  D(86,87,108,116)      -72.4798                                         !
 ! D317  D(80,93,103,91)       -50.3665                                         !
 ! D318  D(80,93,103,107)       70.336                                          !
 ! D319  D(80,93,103,109)     -170.0229                                         !
 ! D320  D(90,93,103,91)        70.1461                                         !
 ! D321  D(90,93,103,107)     -169.1515                                         !
 ! D322  D(90,93,103,109)      -49.5104                                         !
 ! D323  D(105,93,103,91)     -173.0688                                         !
 ! D324  D(105,93,103,107)     -52.3663                                         !
 ! D325  D(105,93,103,109)      67.2748                                         !
 ! D326  D(81,101,102,78)        5.5988                                         !
 ! D327  D(81,101,102,111)    -175.5926                                         !
 ! D328  D(112,101,102,78)    -177.9501                                         !
 ! D329  D(112,101,102,111)      0.8585                                         !
 ! D330  D(81,101,112,114)      -4.548                                          !
 ! D331  D(81,101,112,118)     174.9838                                         !
 ! D332  D(102,101,112,114)    179.3966                                         !
 ! D333  D(102,101,112,118)     -1.0717                                         !
 ! D334  D(78,102,111,108)      -0.418                                          !
 ! D335  D(78,102,111,117)     178.7288                                         !
 ! D336  D(101,102,111,108)   -179.1536                                         !
 ! D337  D(101,102,111,117)     -0.0069                                         !
 ! D338  D(87,108,111,102)     -26.4063                                         !
 ! D339  D(87,108,111,117)     154.4868                                         !
 ! D340  D(115,108,111,102)     87.4971                                         !
 ! D341  D(115,108,111,117)    -91.6098                                         !
 ! D342  D(116,108,111,102)   -154.8615                                         !
 ! D343  D(116,108,111,117)     26.0316                                         !
 ! D344  D(102,111,117,118)     -0.5958                                         !
 ! D345  D(102,111,117,119)    179.6393                                         !
 ! D346  D(108,111,117,118)    178.4751                                         !
 ! D347  D(108,111,117,119)     -1.2898                                         !
 ! D348  D(101,112,118,117)      0.4606                                         !
 ! D349  D(101,112,118,120)   -179.6579                                         !
 ! D350  D(114,112,118,117)    179.9876                                         !
 ! D351  D(114,112,118,120)     -0.131                                          !
 ! D352  D(111,117,118,112)      0.3519                                         !
 ! D353  D(111,117,118,120)   -179.5297                                         !
 ! D354  D(119,117,118,112)   -179.8854                                         !
 ! D355  D(119,117,118,120)      0.233                                          !
 --------------------------------------------------------------------------------
 Stoichiometry    C40H74N4O6P2Ru2(3)
 Framework group  C1[X(C40H74N4O6P2Ru2)]
 Deg. of freedom   378
 Full point group                 C1      NOp   1
 Largest Abelian subgroup         C1      NOp   1
 Largest concise Abelian subgroup C1      NOp   1
                         Standard orientation:                         
 ---------------------------------------------------------------------
 Center     Atomic      Atomic             Coordinates (Angstroms)
 Number     Number       Type             X           Y           Z
 ---------------------------------------------------------------------
      1          1           0        2.210392   -2.233552   -4.323022
      2          6           0        2.940196   -2.100648   -3.510920
      3          1           0        3.782170   -2.781024   -3.709121
      4          1           0        2.443986   -2.396075   -2.574048
      5          1           0        0.287286    0.697004    0.934499
      6          8           0        2.001974    0.899682   -1.115626
      7          1           0        0.787529   -1.870166    2.197827
      8          8           0        0.910092    0.329225   -1.548212
      9          1           0        1.656125   -2.289024   -0.306839
     10          6           0        3.355220   -0.646521   -3.468218
     11          1           0       -0.287404    1.933936    2.067126
     12          1           0        3.815468   -0.341254   -4.427378
     13          6           0        0.393076    1.073782    1.960783
     14          1           0        2.175954   -2.858111    1.708815
     15          1           0        0.042019    0.289336    2.648746
     16          1           0        2.466628   -0.019090   -3.318195
     17          6           0        1.707143   -2.350538    2.562038
     18          1           0        1.422514   -3.118999    3.300189
     19          1           0        3.624752    1.645946   -2.498292
     20         44           0        3.371292   -0.492951   -0.275600
     21          1           0        2.201716    2.333355    0.266324
     22          7           0        4.285489   -0.320835   -2.360271
     23          6           0        4.593078    1.126219   -2.424187
     24          6           0        1.820215    1.517013    2.276867
     25          1           0        1.501887    3.466680    1.440840
     26          1           0        1.063784   -0.505821    4.447359
     27          6           0        2.226353    2.644187    1.317264
     28          6           0        2.672146   -1.357637    3.219992
     29         15           0        2.964713    0.031175    1.934898
     30          1           0        5.184325    1.378307   -3.320061
     31          6           0        2.079750   -0.907667    4.554206
     32          1           0        5.272398   -2.156993   -2.218247
     33          1           0        5.776597   -1.426416   -4.579307
     34          1           0        2.012297   -1.788951    5.213717
     35          6           0        5.539709   -1.113573   -2.423895
     36          1           0        1.381036    3.072192    3.685244
     37          6           0        4.293261   -2.007411    0.167573
     38          6           0        1.900137    2.099431    3.691850
     39          1           0        4.543014   -2.368495    2.622067
     40          6           0        3.995705   -2.065661    3.523162
     41          1           0        1.411746    1.480309    4.449743
     42          1           0        3.774005   -2.984861    4.090327
     43          6           0        5.274738    1.619095   -1.177564
     44          7           0        4.801595    1.080305   -0.044265
     45          6           0        6.335526   -1.033268   -3.717622
     46          1           0        3.220710    3.051004    1.558995
     47          1           0        6.158895   -0.785252   -1.576003
     48          1           0        2.706437   -0.162872    5.064433
     49          1           0        6.665517   -0.011840   -3.959516
     50          6           0        4.666140    0.732794    2.339660
     51          1           0        7.241743   -1.647405   -3.607721
     52          1           0        2.934707    2.294718    4.014821
     53          6           0        5.249566    1.460710    1.163139
     54          6           0        6.263609    2.595054   -1.144497
     55          1           0        4.654661   -1.448024    4.152616
     56          1           0        6.647116    3.023079   -2.071600
     57          1           0        5.298602   -0.149912    2.526525
     58          1           0        4.692458    1.352540    3.247999
     59          6           0        6.226367    2.452039    1.262616
     60          6           0        6.736200    3.018734    0.097711
     61          1           0        6.584748    2.768473    2.243038
     62          1           0        7.506625    3.789701    0.156848
     63          8           0        4.869153   -3.006759    0.367311
     64          6           0       -1.977251   -4.456657    1.528016
     65          1           0       -2.501782    2.181853    2.195992
     66          8           0        0.830572   -2.381243   -0.814910
     67          1           0       -1.091111    3.086088   -0.248087
     68          8           0       -3.053470   -0.363685    1.914511
     69          1           0        0.677800   -1.445498   -1.076689
     70          6           0       -1.936404   -3.025620    1.012222
     71          1           0       -3.387132    3.546419    2.927344
     72          6           0       -3.080333    3.087885    1.971900
     73          1           0       -0.980995    1.828623   -1.487570
     74          1           0       -2.429151    3.805570    1.450271
     75          6           0       -1.332656    2.850941   -1.295817
     76          1           0       -0.759201    3.544420   -1.934336
     77          1           0       -4.120419   -2.219941    1.932694
     78         44           0       -2.986489   -0.338108   -0.188462
     79          1           0       -4.602003    0.800151    2.147528
     80          7           0       -3.086824   -2.598684    0.178644
     81          6           0       -4.341809   -2.685800    0.958795
     82          6           0       -4.322270    2.725024    1.158346
     83          1           0       -5.403231    2.201561    2.937680
     84          1           0       -2.902945    4.905162   -0.447545
     85          6           0       -5.165942    1.730587    1.967788
     86          6           0       -2.826922    3.028335   -1.586786
     87         15           0       -3.737762    1.814919   -0.420113
     88          1           0       -4.656085   -3.733776    1.103583
     89          6           0       -3.192318    4.503195   -1.427589
     90          1           0       -3.999555   -2.907701   -1.665920
     91          1           0       -1.444302   -2.689576   -2.038788
     92          1           0       -2.637506    5.077117   -2.189071
     93          6           0       -3.242441   -3.414528   -1.047464
     94          1           0       -5.656857    4.237344    1.886058
     95          6           0       -2.674603   -0.479595   -1.974425
     96          6           0       -5.187183    3.967926    0.925129
     97          1           0       -2.913670    1.594266   -3.263546
     98          6           0       -3.107288    2.650002   -3.043848
     99          1           0       -4.624603    4.842029    0.582948
    100          1           0       -2.436631    3.243228   -3.687838
    101          6           0       -5.459407   -1.890363    0.345164
    102          7           0       -5.078803   -0.716996   -0.178089
    103          6           0       -1.972272   -3.628814   -1.842387
    104          1           0       -6.125658    1.513034    1.474156
[...]
  Beta virt. eigenvalues --    5.15675   5.16079   5.16502   5.16816   5.17570
  Beta virt. eigenvalues --    5.18276   5.18779   5.19153   5.19447   5.19767
  Beta virt. eigenvalues --    5.20632   5.20873   5.21428   5.21548   5.21844
  Beta virt. eigenvalues --    5.21974   5.22128   5.22322   5.22479   5.22715
  Beta virt. eigenvalues --    5.23115   5.23539   5.24000   5.24117   5.24432
  Beta virt. eigenvalues --    5.24781   5.24852   5.25062   5.25622   5.25711
  Beta virt. eigenvalues --    5.25909   5.26231   5.26725   5.26960   5.27137
  Beta virt. eigenvalues --    5.27484   5.27775   5.27845   5.28104   5.28189
  Beta virt. eigenvalues --    5.29093   5.29250   5.29431   5.29790   5.30246
  Beta virt. eigenvalues --    5.30559   5.30691   5.31095   5.31259   5.31435
  Beta virt. eigenvalues --    5.31651   5.32356   5.32611   5.32972   5.33320
  Beta virt. eigenvalues --    5.33899   5.34331   5.34944   5.35066   5.35330
  Beta virt. eigenvalues --    5.35729   5.35984   5.36138   5.36231   5.36332
  Beta virt. eigenvalues --    5.36721   5.37092   5.37304   5.37412   5.37568
  Beta virt. eigenvalues --    5.37659   5.37774   5.38001   5.38291   5.38744
  Beta virt. eigenvalues --    5.39089   5.39393   5.39622   5.39846   5.40020
  Beta virt. eigenvalues --    5.40247   5.40487   5.40704   5.40806   5.41118
  Beta virt. eigenvalues --    5.41467   5.41583   5.41886   5.42226   5.42726
  Beta virt. eigenvalues --    5.43161   5.43266   5.43564   5.43772   5.44094
  Beta virt. eigenvalues --    5.44367   5.44479   5.44880   5.45199   5.45320
  Beta virt. eigenvalues --    5.45806   5.46193   5.46805   5.46971   5.47321
  Beta virt. eigenvalues --    5.47893   5.48192   5.48320   5.48413   5.48753
  Beta virt. eigenvalues --    5.49026   5.49182   5.49469   5.49548   5.49741
  Beta virt. eigenvalues --    5.50194   5.50691   5.51075   5.51450   5.51703
  Beta virt. eigenvalues --    5.52061   5.52432   5.52875   5.53041   5.53599
  Beta virt. eigenvalues --    5.53758   5.54252   5.54279   5.55002   5.55324
  Beta virt. eigenvalues --    5.55459   5.56042   5.56665   5.56898   5.56953
  Beta virt. eigenvalues --    5.57210   5.57654   5.57807   5.58065   5.58332
  Beta virt. eigenvalues --    5.58548   5.59085   5.59577   5.59680   5.60147
  Beta virt. eigenvalues --    5.60257   5.60459   5.61256   5.61650   5.62265
  Beta virt. eigenvalues --    5.62397   5.63754   5.64475   5.64949   5.65048
  Beta virt. eigenvalues --    5.67294   5.67592   5.69271   5.69362   5.70005
  Beta virt. eigenvalues --    5.71090   5.71972   5.72533   5.73624   5.74565
  Beta virt. eigenvalues --    5.77280   5.77883   5.78764   5.81653   5.86248
  Beta virt. eigenvalues --    5.87597   5.88326   5.88889   5.89268   5.89609
  Beta virt. eigenvalues --    5.92638   5.93392   5.98827   5.99366   5.99762
  Beta virt. eigenvalues --    6.00434   6.01119   6.01228   6.01508   6.01792
  Beta virt. eigenvalues --    6.02070   6.02349   6.02859   6.03442   6.03887
  Beta virt. eigenvalues --    6.04164   6.04412   6.04707   6.04958   6.05433
  Beta virt. eigenvalues --    6.05979   6.06822   6.07224   6.07355   6.08004
  Beta virt. eigenvalues --    6.08698   6.08987   6.09595   6.10011   6.10259
  Beta virt. eigenvalues --    6.10577   6.10981   6.11776   6.12376   6.13610
  Beta virt. eigenvalues --    6.14072   6.14267   6.14689   6.15056   6.15648
  Beta virt. eigenvalues --    6.16256   6.16579   6.17798   6.18159   6.18748
  Beta virt. eigenvalues --    6.19331   6.20124   6.20312   6.22241   6.23013
  Beta virt. eigenvalues --    6.23405   6.24462   6.25378   6.27132   6.28121
  Beta virt. eigenvalues --    6.28415   6.29311   6.30240   6.31425   6.31541
  Beta virt. eigenvalues --    6.32747   6.34091   6.34771   6.35505   6.36420
  Beta virt. eigenvalues --    6.37197   6.41049   6.41388   6.42281   6.45171
  Beta virt. eigenvalues --    6.46607   6.48812   6.50017   6.54332   6.55211
  Beta virt. eigenvalues --    6.56175   6.61072   6.62175   6.64751   6.66450
  Beta virt. eigenvalues --    6.68532   6.69145   6.71000   6.72494   6.74663
  Beta virt. eigenvalues --    6.79005   6.79654   6.80950   6.82690   6.84415
  Beta virt. eigenvalues --    6.87302   6.87526   6.88845   6.90819   6.93056
  Beta virt. eigenvalues --    6.95449   7.00422   7.07467   7.09197   7.15441
  Beta virt. eigenvalues --    7.18348   7.22057   7.26684   7.41770   7.45650
  Beta virt. eigenvalues --    7.46995   7.50619   7.95181   8.38519   8.76888
  Beta virt. eigenvalues --    9.74410   9.79307  10.04120  10.11670  10.14004
  Beta virt. eigenvalues --   10.18721  10.32832  10.80017  10.91058  11.41602
  Beta virt. eigenvalues --   12.24244  12.27770  12.38845  12.42366  12.67629
  Beta virt. eigenvalues --   12.80393  12.82139  12.92591  12.94255  13.00832
  Beta virt. eigenvalues --   13.21960  13.23451  13.25339  13.29149  13.38108
  Beta virt. eigenvalues --   13.46268  13.52716  13.53236  13.56544  13.62406
  Beta virt. eigenvalues --   13.66967  13.68504  13.76304  13.78086  13.81174
  Beta virt. eigenvalues --   13.83000  13.84914  13.87264  13.88602  13.89739
  Beta virt. eigenvalues --   13.93901  13.97838  14.01112  14.15064  14.17813
  Beta virt. eigenvalues --   14.40206  15.07552  15.09158  35.47918  35.51244
  Beta virt. eigenvalues --   35.65467  35.73003  35.74093  35.78384  46.32859
  Beta virt. eigenvalues --   46.36242
          Condensed to atoms (all electrons):
          Atomic-Atomic Spin Densities.
 Mulliken charges and spin densities:
               1          2
     1  H    0.120061   0.000745
     2  C   -0.347410   0.000997
     3  H    0.115891   0.000039
     4  H    0.109111   0.002562
     5  H    0.115199  -0.002634
     6  O   -0.295434   0.459432
     7  H    0.127569  -0.001964
     8  O   -0.317507   0.533823
     9  H    0.273893   0.024638
    10  C   -0.125237  -0.003011
    11  H    0.130093   0.000296
    12  H    0.122180   0.000768
    13  C   -0.366079  -0.000883
    14  H    0.136811  -0.004118
    15  H    0.133694   0.000176
    16  H    0.152441   0.001285
    17  C   -0.355643   0.002502
    18  H    0.113414   0.001275
    19  H    0.171459  -0.001392
    20  Ru   0.734908   0.868064
    21  H    0.162264  -0.004302
    22  N   -0.242274  -0.000370
    23  C   -0.128415   0.013858
    24  C    0.013312  -0.003659
    25  H    0.110669   0.000155
    26  H    0.120722   0.000033
    27  C   -0.398416   0.010112
    28  C    0.015810  -0.001996
    29  P    0.053378  -0.015348
    30  H    0.130128  -0.000880
    31  C   -0.336841  -0.000433
    32  H    0.132812  -0.000781
    33  H    0.112289  -0.000025
    34  H    0.108034  -0.000043
    35  C   -0.125818  -0.000845
    36  H    0.109527  -0.000326
    37  C   -0.234869   0.015244
    38  C   -0.341819  -0.000144
    39  H    0.137690   0.000212
    40  C   -0.359879  -0.000041
    41  H    0.119801   0.000109
    42  H    0.108580  -0.000073
    43  C    0.138941  -0.004331
    44  N   -0.191129   0.058858
    45  C   -0.325635  -0.000002
    46  H    0.124221  -0.000009
    47  H    0.143018  -0.000098
    48  H    0.112789   0.000053
    49  H    0.111554   0.000015
    50  C   -0.224412  -0.000534
    51  H    0.118453   0.000102
    52  H    0.118795   0.000053
    53  C    0.035001   0.001728
    54  C   -0.164407   0.003753
    55  H    0.112567  -0.000032
    56  H    0.161959   0.001491
    57  H    0.159462  -0.000340
    58  H    0.146219  -0.001002
    59  C   -0.138556   0.002791
    60  C   -0.135746   0.000811
    61  H    0.162276   0.001161
    62  H    0.162325  -0.000152
    63  O   -0.318893   0.019655
    64  C   -0.335256  -0.000008
    65  H    0.119932   0.000015
    66  O   -0.550190   0.028295
    67  H    0.127121   0.000086
    68  O   -0.731831  -0.000053
    69  H    0.316662  -0.012124
    70  C   -0.135714   0.000523
    71  H    0.107340  -0.000002
    72  C   -0.350075  -0.000005
    73  H    0.118688  -0.001825
    74  H    0.123675  -0.000009
    75  C   -0.347416   0.000061
    76  H    0.111039   0.000013
    77  H    0.173080  -0.000002
    78  Ru   0.754542   0.004434
    79  H    0.157476  -0.000009
    80  N   -0.199361  -0.000070
    81  C   -0.111908   0.000033
    82  C    0.011351  -0.000016
    83  H    0.102473   0.000000
    84  H    0.117795  -0.000002
    85  C   -0.401129  -0.000001
    86  C    0.006700  -0.000072
    87  P    0.103804   0.000291
    88  H    0.122609  -0.000005
    89  C   -0.337709   0.000090
    90  H    0.142346  -0.000004
    91  H    0.120713   0.000036
    92  H    0.107848  -0.000008
    93  C   -0.117652   0.000078
    94  H    0.107837  -0.000000
    95  C   -0.160753  -0.000447
    96  C   -0.338075  -0.000002
    97  H    0.142185  -0.000012
    98  C   -0.370457   0.000014
    99  H    0.118232   0.000002
   100  H    0.106706  -0.000001
   101  C    0.095987  -0.000037
   102  N   -0.132816   0.000934
   103  C   -0.344696   0.000408
   104  H    0.113622   0.000000
   105  H    0.116905   0.000003
   106  H    0.113313   0.000028
   107  H    0.113943   0.000060
   108  C   -0.234425   0.000013
   109  H    0.122448   0.000082
   110  H    0.115953  -0.000001
   111  C    0.036735  -0.000150
   112  C   -0.163047   0.000077
   113  H    0.114042  -0.000001
   114  H    0.160721   0.000014
   115  H    0.160693  -0.000004
   116  H    0.144920  -0.000003
   117  C   -0.136043   0.000070
   118  C   -0.135714  -0.000069
   119  H    0.163205   0.000012
   120  H    0.162203   0.000003
   121  H    0.277646  -0.000146
   122  O   -0.316556   0.000083
   123  H    0.120505   0.000013
   124  H    0.109158  -0.000006
   125  H    0.112793   0.000015
   126  H    0.136972   0.000051
   127  H    0.121979  -0.000316
   128  H   -0.407978   0.002546
 Sum of Mulliken charges =  -0.00000   2.00000
 Mulliken charges and spin densities with hydrogens summed into heavy atoms:
               1          2
     2  C   -0.002347   0.004344
     6  O   -0.295434   0.459432
     8  O   -0.317507   0.533823
    10  C    0.149383  -0.000958
    13  C    0.012907  -0.003046
    17  C    0.022151  -0.002305
    20  Ru   0.734908   0.868064
    22  N   -0.242274  -0.000370
    23  C    0.173172   0.011586
    24  C    0.013312  -0.003659
    27  C   -0.001263   0.005956
    28  C    0.015810  -0.001996
    29  P    0.053378  -0.015348
    31  C    0.004704  -0.000390
    35  C    0.150012  -0.001724
    37  C   -0.234869   0.015244
    38  C    0.006304  -0.000308
    40  C   -0.001042   0.000067
    43  C    0.138941  -0.004331
    44  N   -0.191129   0.058858
    45  C    0.016661   0.000090
    50  C    0.081269  -0.001876
    53  C    0.035001   0.001728
    54  C   -0.002448   0.005244
    59  C    0.023720   0.003952
    60  C    0.026579   0.000660
    63  O   -0.318893   0.019655
    64  C    0.007201   0.000015
    66  O    0.040365   0.040809
    68  O   -0.454185  -0.000199
    70  C    0.123237   0.000258
    72  C    0.000872  -0.000000
    75  C    0.009432  -0.001666
    78  Ru   0.346564   0.006980
    80  N   -0.199361  -0.000070
    81  C    0.183782   0.000025
    82  C    0.011351  -0.000016
    85  C   -0.027559  -0.000009
    86  C    0.006700  -0.000072
    87  P    0.103804   0.000291
    89  C    0.001247   0.000107
    93  C    0.141599   0.000077
    95  C   -0.160753  -0.000447
    96  C    0.003948  -0.000002
    98  C   -0.007524   0.000000
   101  C    0.095987  -0.000037
   102  N   -0.132816   0.000934
   103  C    0.012409   0.000586
   108  C    0.071189   0.000005
   111  C    0.036735  -0.000150
   112  C   -0.002326   0.000091
   117  C    0.027163   0.000082
   118  C    0.026489  -0.000066
   122  O   -0.316556   0.000083
 Electronic spatial extent (au):  <R**2>=          41549.8042
 Charge=             -0.0000 electrons
 Dipole moment (field-independent basis, Debye):
    X=              3.1823    Y=              7.9953    Z=              2.5050  Tot=              8.9625
 Quadrupole moment (field-independent basis, Debye-Ang):
   XX=           -241.6712   YY=           -356.2963   ZZ=           -361.9588
   XY=             40.1500   XZ=              6.5733   YZ=             -5.8546
 Traceless Quadrupole moment (field-independent basis, Debye-Ang):
   XX=             78.3043   YY=            -36.3209   ZZ=            -41.9834
   XY=             40.1500   XZ=              6.5733   YZ=             -5.8546
 Octapole moment (field-independent basis, Debye-Ang**2):
  XXX=           -134.9957  YYY=              1.3844  ZZZ=            -15.7328  XYY=            -94.1579
  XXY=            173.6938  XXZ=           -144.4940  XZZ=            203.3289  YZZ=              4.5277
  YYZ=             -3.7792  XYZ=             47.0980
 Hexadecapole moment (field-independent basis, Debye-Ang**3):
 XXXX=         -30496.1851 YYYY=         -10664.5147 ZZZZ=          -8983.6463 XXXY=           1925.5993
 XXXZ=             66.6735 YYYX=            555.2773 YYYZ=            -60.4536 ZZZX=           -104.9885
 ZZZY=            -24.5407 XXYY=          -7143.0397 XXZZ=          -7231.2181 YYZZ=          -3197.3580
 XXYZ=            -97.3737 YYXZ=            -67.4872 ZZXY=             -1.9006
 N-N= 1.034293099903D+04 E-N=-2.792277861365D+04  KE= 2.970173529543D+03
 1\1\GINC-NODE282\SP\UPBE1PBE\GenECP\C40H74N4O6P2Ru2(3)\JS1212\23-Jul-2
 020\0\\# genecp pbe1pbe EmpiricalDispersion=GD3BJ scrf=(SMD,solvent=wa
 ter) geom=allcheck\\Title Card Required\\0,3\H,0,-1.7945252155,-0.6132
 884553,-5.0183696927\C,0,-2.6069071705,-0.3474504185,-4.3261614746\H,0
 ,-3.4367691919,0.0516183885,-4.9288134528\H,0,-2.2247324414,0.44223241
 69,-3.6616508524\H,0,-0.4022130755,-0.1065939524,1.1243288654\O,0,-1.8
 73320018,-1.511333187,-0.6211788669\H,0,-1.0976391807,2.6887291801,0.7
 512993294\O,0,-0.7532703504,-1.1773576172,-1.203164068\H,0,-1.69161243
 33,1.6296966889,-1.6422123789\C,0,-2.9911718266,-1.5796175836,-3.53707
 48313\H,0,0.0707649277,-0.4937805629,2.7885081422\H,0,-3.334916797,-2.
 3866727368,-4.2119862037\C,0,-0.6129174037,0.1183995478,2.1785561357\H
 ,0,-2.4450348652,3.14724379,-0.3056692409\H,0,-0.3583242456,1.17423273
 52,2.3582449649\H,0,-2.1108326499,-1.9563193902,-2.9996087309\C,0,-2.0
 626542571,3.2149822571,0.7212685627\H,0,-1.8792795961,4.2790256809,0.9
 462080963\H,0,-3.3150478344,-3.0079708817,-1.5063797193\Ru,0,-3.358631
 0295,0.0011607047,-0.7833930783\H,0,-2.1930535483,-1.9914962614,1.2951
 501022\N,0,-4.0312653479,-1.3331070181,-2.5092340326\C,0,-4.2970937762
 ,-2.6079774546,-1.8044635562\C,0,-2.0559782533,-0.1975903292,2.5669018
 617\H,0,-1.6027405794,-2.2592506087,2.9484839575\H,0,-1.5914150082,2.7
 257820986,3.3499449026\C,0,-2.3273587628,-1.6914408688,2.3409164922\C,
 0,-3.0721633698,2.6567523703,1.7308503297\P,0,-3.1886103092,0.77751612
 74,1.3833279821\H,0,-4.7792284166,-3.3467744742,-2.4658537601\C,0,-2.6
 217730862,3.0404738417,3.1391964799\H,0,-5.0690442292,0.208317844,-3.4
 645665206\H,0,-5.2909908227,-1.7110670943,-5.0860677548\H,0,-2.6479752
 735,4.1400276745,3.2195859169\C,0,-5.2882105971,-0.8000648577,-3.09361
 77171\H,0,-1.7411111867,-0.7151959029,4.6230948498\C,0,-4.3581105031,1
 .438729185,-1.3072805942\C,0,-2.2795549307,0.0649312503,4.0598421458\H
 ,0,-4.8872950662,3.038002734,0.5310846412\C,0,-4.4368677212,3.30969552
 21,1.4936463735\H,0,-1.8925576835,1.0301440382,4.3987171809\H,0,-4.300
 4086396,4.4038207963,1.4887767162\C,0,-5.1018271646,-2.4080107767,-0.5
 498420686\N,0,-4.7699032195,-1.3103209936,0.1454483663\C,0,-5.93323861
 86,-1.6238845595,-4.1975941944\H,0,-3.3329869239,-1.9824521788,2.68253
 44573\H,0,-5.9902556986,-0.6705506643,-2.2566796945\H,0,-3.284327055,2
 .6383602568,3.9183716469\H,0,-6.2111460434,-2.6381655522,-3.8739825546
 \C,0,-4.9082145545,0.2701825343,1.9634393546\H,0,-6.8596874722,-1.1204
 398908,-4.5117707522\H,0,-3.338945419,-0.0079207053,4.351677229\C,0,-5
 .3406344105,-1.018359766,1.32537805\C,0,-6.0659570422,-3.2888050295,-0
 .0743319734\H,0,-5.1476087743,3.0758117869,2.3011460261\H,0,-6.3342490
 961,-4.175792037,-0.6497235667\H,0,-5.5772967516,1.0622639258,1.590567
 3448\H,0,-5.0213617716,0.2340241968,3.0569414104\C,0,-6.2998095193,-1.
 8755251983,1.8657674883\C,0,-6.6640420156,-3.016511607,1.1561474502\H,
 0,-6.7577367533,-1.6443650864,2.8284001764\H,0,-7.4186626851,-3.693757
 2577,1.5602839468\O,0,-4.9750519961,2.3402241635,-1.7279144577\C,0,1.6
 653693724,4.7223810353,-0.9843956066\H,0,2.2621148766,-0.4579925567,3.
 2106932552\O,0,-0.8169827094,1.5001816642,-2.0501685688\H,0,1.15270036
 95,-2.6395157573,1.5399723362\O,0,2.7840703333,1.5743676174,1.64211677
 18\H,0,-0.6149675801,0.5854372762,-1.7503050204\C,0,1.7144395895,3.239
 8747901,-0.6447659335\H,0,3.0912428139,-1.1429627601,4.6334106251\C,0,
 2.8823003181,-1.2938954548,3.5606507332\H,0,1.1527146104,-2.2556064572
 ,-0.186954482\H,0,2.309519332,-2.2281974468,3.4596106534\C,0,1.5038652
 005,-2.9843141253,0.5555054731\H,0,1.0207592947,-3.9547728804,0.349863
 1426\H,0,3.800203218,3.2287193045,0.7393490963\Ru,0,2.9519095662,0.420
 45403,-0.1094395411\H,0,4.322972492,0.8434684988,2.5930807879\N,0,2.95
 97477122,2.5252238652,-1.0176902816\C,0,4.1179258408,3.1158188561,-0.3
 09852343\C,0,4.1984781853,-1.3267299665,2.7844152709\H,0,5.0628150572,
 0.1523925396,4.0781070222\H,0,3.0160794657,-4.1321330255,2.5051002989\
 C,0,4.9242587821,0.0096687483,2.992175824\C,0,3.0248386586,-3.17120854
 54,0.5295805561\P,0,3.7726925127,-1.4539775657,0.9232359682\H,0,4.3904
 164453,4.0991262548,-0.7303793234\C,0,3.4034714595,-4.2966540949,1.490
 8707171\H,0,4.0646904543,1.8685153261,-2.654401447\H,0,1.5723148308,1.
 2832745592,-3.0562529098\H,0,2.9498599559,-5.2310514164,1.1191232533\C
 ,0,3.232261706,2.5661201093,-2.4727579905\H,0,5.4776831095,-2.10231921
 72,4.3206112916\C,0,2.8374082148,-0.4424963121,-1.7060486938\C,0,5.111
 7959766,-2.4280285967,3.3323782339\H,0,3.2650756629,-2.85765631,-1.642
 8774289\C,0,3.4568509374,-3.6119726701,-0.8717987403\H,0,4.6106256985,
 -3.3906200911,3.4733917032\H,0,2.8755155204,-4.5087837975,-1.144194552
 6\C,0,5.3144898115,2.206720549,-0.3019081723\N,0,5.0210077453,0.909929
 9204,-0.1356370976\C,0,2.0538365955,2.2197452704,-3.3573411193\H,0,5.9
 277499827,0.0038488466,2.5393758108\H,0,3.6044904455,3.5761154472,-2.7
 370571841\H,0,4.4893231254,-4.4590199982,1.5478515739\H,0,1.2796916263
 ,2.9984758471,-3.3462158282\C,0,5.4910470334,-1.4392572606,0.143610758
 \H,0,2.4093520283,2.1061779796,-4.3924936167\H,0,6.0014860278,-2.58987
 97258,2.7044831481\C,0,5.9769144002,-0.0261864218,-0.0177099232\C,0,6.
 637695103,2.6311040775,-0.3766077523\H,0,4.520809759,-3.8948083633,-0.
 9016958368\H,0,6.8686704065,3.6871139802,-0.5218749168\H,0,5.347464126
 8,-1.8642263351,-0.8630082828\H,0,6.2355192018,-2.0621390344,0.6612579
 663\C,0,7.3221002037,0.3394286522,-0.0670032217\C,0,7.6493333686,1.680
 4479781,-0.2519104519\H,0,8.0990145039,-0.4193095222,0.0345639612\H,0,
 8.6965667899,1.9852063811,-0.3008983974\H,0,1.9302355515,1.3477799473,
 2.0246984703\O,0,2.6969854384,-0.9646765107,-2.7433867113\H,0,0.686336
 15,5.1197095716,-0.6748620467\H,0,1.7650153287,4.9174073618,-2.0636141
 74\H,0,2.4339774065,5.3092067121,-0.4574762803\H,0,1.6242140607,3.0829
 371084,0.4392861391\H,0,0.8832964044,2.7048360226,-1.1239157778\H,0,1.
 3793448413,0.1570753133,-0.012812375\\Version=ES64L-G16RevA.03\State=3
 -A\HF=-3109.8726963\S2=2.011424\S2-1=0.\S2A=2.000077\RMSD=1.815e-09\Di
 pole=-1.2825073,-2.2147377,2.4256232\Quadrupole=56.8308471,-20.2045688
 ,-36.6262783,28.8022967,-12.6682859,0.6858756\PG=C01 [X(C40H74N4O6P2Ru
 2)]\\@


 THAT'S WHAT MAKES US A GREAT COUNTRY.
 THE LITTLE THINGS ARE SERIOUS AND THE BIG ONES ARE NOT.
           WILL ROGERS
 Job cpu time:       5 days 23 hours 47 minutes 46.4 seconds.
 Elapsed time:       0 days  7 hours 12 minutes 14.6 seconds.
 File lengths (MBytes):  RWF=   7634 Int=      0 D2E=      0 Chk=    591 Scr=      1
 Normal termination of Gaussian 16 at Thu Jul 23 00:22:48 2020.
