 Entering Gaussian System, Link 0=g16
 Initial command:
 /cluster/chemistry/gaussian/g16/l1.exe "/scratch/js1212.757591/scratch/Gau-12506.inp" -scrdir="/scratch/js1212.757591/scratch/"
 Entering Link 1 = /cluster/chemistry/gaussian/g16/l1.exe PID=     12508.
  
 Copyright (c) 1988,1990,1992,1993,1995,1998,2003,2009,2016,
            Gaussian, Inc.  All Rights Reserved.
  
 This is part of the Gaussian(R) 16 program.  It is based on
 the Gaussian(R) 09 system (copyright 2009, Gaussian, Inc.),
 the Gaussian(R) 03 system (copyright 2003, Gaussian, Inc.),
 the Gaussian(R) 98 system (copyright 1998, Gaussian, Inc.),
 the Gaussian(R) 94 system (copyright 1995, Gaussian, Inc.),
 the Gaussian 92(TM) system (copyright 1992, Gaussian, Inc.),
 the Gaussian 90(TM) system (copyright 1990, Gaussian, Inc.),
 the Gaussian 88(TM) system (copyright 1988, Gaussian, Inc.),
 the Gaussian 86(TM) system (copyright 1986, Carnegie Mellon
 University), and the Gaussian 82(TM) system (copyright 1983,
 Carnegie Mellon University). Gaussian is a federally registered
 trademark of Gaussian, Inc.
  
 This software contains proprietary and confidential information,
 including trade secrets, belonging to Gaussian, Inc.
  
 This software is provided under written license and may be
 used, copied, transmitted, or stored only in accord with that
 written license.
  
 The following legend is applicable only to US Government
 contracts under FAR:
  
                    RESTRICTED RIGHTS LEGEND
  
 Use, reproduction and disclosure by the US Government is
 subject to restrictions as set forth in subparagraphs (a)
 and (c) of the Commercial Computer Software - Restricted
 Rights clause in FAR 52.227-19.
  
 Gaussian, Inc.
 340 Quinnipiac St., Bldg. 40, Wallingford CT 06492
  
  
 ---------------------------------------------------------------
 Warning -- This program may not be used in any manner that
 competes with the business of Gaussian, Inc. or will provide
 assistance to any competitor of Gaussian, Inc.  The licensee
 of this program is prohibited from giving any competitor of
 Gaussian, Inc. access to this program.  By using this program,
 the user acknowledges that Gaussian, Inc. is engaged in the
 business of creating and licensing software in the field of
 computational chemistry and represents and warrants to the
 licensee that it is not a competitor of Gaussian, Inc. and that
 it will not use this program in any manner prohibited above.
 ---------------------------------------------------------------
  

 Cite this work as:
 Gaussian 16, Revision A.03,
 M. J. Frisch, G. W. Trucks, H. B. Schlegel, G. E. Scuseria, 
 M. A. Robb, J. R. Cheeseman, G. Scalmani, V. Barone, 
 G. A. Petersson, H. Nakatsuji, X. Li, M. Caricato, A. V. Marenich, 
 J. Bloino, B. G. Janesko, R. Gomperts, B. Mennucci, H. P. Hratchian, 
 J. V. Ortiz, A. F. Izmaylov, J. L. Sonnenberg, D. Williams-Young, 
 F. Ding, F. Lipparini, F. Egidi, J. Goings, B. Peng, A. Petrone, 
 T. Henderson, D. Ranasinghe, V. G. Zakrzewski, J. Gao, N. Rega, 
 G. Zheng, W. Liang, M. Hada, M. Ehara, K. Toyota, R. Fukuda, 
 J. Hasegawa, M. Ishida, T. Nakajima, Y. Honda, O. Kitao, H. Nakai, 
 T. Vreven, K. Throssell, J. A. Montgomery, Jr., J. E. Peralta, 
 F. Ogliaro, M. J. Bearpark, J. J. Heyd, E. N. Brothers, K. N. Kudin, 
 V. N. Staroverov, T. A. Keith, R. Kobayashi, J. Normand, 
 K. Raghavachari, A. P. Rendell, J. C. Burant, S. S. Iyengar, 
 J. Tomasi, M. Cossi, J. M. Millam, M. Klene, C. Adamo, R. Cammi, 
 J. W. Ochterski, R. L. Martin, K. Morokuma, O. Farkas, 
 J. B. Foresman, and D. J. Fox, Gaussian, Inc., Wallingford CT, 2016.
 
 ******************************************
 Gaussian 16:  ES64L-G16RevA.03 25-Dec-2016
                22-Jul-2020 
 ******************************************
 %rwf=/scratch/js1212.757591/J-Trans-R2-R2-Down-T-GP-SMD.rwf
 %nosave
 %nprocshared=20
 Will use up to   20 processors via shared memory.
 %mem=3000MB
 %oldchk=/data/js1212/200716_g16/J-Trans-R2-R2-Down-T-GPF.chk
 %chk=/scratch/js1212.757591/J-Trans-R2-R2-Down-T-GP-SMD.chk
 Copying data from "/data/js1212/200716_g16/J-Trans-R2-R2-Down-T-GPF.chk" to current chk file "/scratch/js1212.757591/J-Trans-R2-R2-Down-T-GP-SMD.chk"
 IOpt=  2 FromEx=T IUOpen= 4 IOptOp= 5 NList=   0 IFRang= 0 IUIn= 4 IUOut= 2.
 ----------------------------------------------------------------------
 # genecp pbe1pbe EmpiricalDispersion=GD3BJ scrf=(SMD,solvent=water) ge
 om=allcheck
 ----------------------------------------------------------------------
 1/29=7,38=1,172=1/1;
 2/12=2,40=1/2;
 3/5=7,11=2,14=-4,16=1,17=8,25=1,30=1,70=32201,72=1,74=-13,124=41/1,2,3;
 4//1;
 5/5=2,38=5,53=1/2;
 6/7=2,8=2,9=2,10=2,28=1/1;
 99/5=1,9=1/99;
 Structure from the checkpoint file:  "/scratch/js1212.757591/J-Trans-R2-R2-Down-T-GP-SMD.chk"
 -------------------
 Title Card Required
 -------------------
 Charge =  0 Multiplicity = 3
 Redundant internal coordinates found in file.  (old form).
 H,0,-1.0513488268,-3.3552581058,-3.096235404
 C,0,-1.8915305381,-2.6573197917,-2.9635235898
 H,0,-2.511492306,-2.716181311,-3.8711391962
 H,0,-1.4657148576,-1.6453998008,-2.8869554006
 H,0,-0.5032256627,0.7058239256,1.9798273216
 O,0,-1.821046193,-1.3112373119,0.7471835003
 H,0,-0.3249701515,2.7005758757,0.191144899
 O,0,-0.7088611993,-1.2638788403,0.065759595
 H,0,-0.9488038051,0.2773237136,-1.9697297742
 C,0,-2.6468396502,-3.0500118101,-1.7133766715
 H,0,-0.5471312933,1.1454204983,3.7002718866
 H,0,-3.0850487575,-4.0607784103,-1.8266924655
 C,0,-0.897060827,1.4371906075,2.6958447731
 H,0,-1.2099232093,2.5207053438,-1.3268157428
 H,0,-0.4418806954,2.4086810206,2.4583989625
 H,0,-1.9536238038,-3.0903545605,-0.8631716656
 C,0,-1.0715352697,3.1811937141,-0.459379064
 H,0,-0.6487398826,4.1359463243,-0.8159556373
 H,0,-3.6123749503,-2.8855351581,0.5978582569
 Ru,0,-3.0144467722,-0.0806120225,-0.4947564355
 H,0,-2.6223182194,-0.700611863,2.5133320351
 N,0,-3.7209677375,-2.1035316441,-1.3252520998
 C,0,-4.4040927445,-2.6585275793,-0.1345468945
 C,0,-2.4248126754,1.4822226247,2.6865657826
 H,0,-2.5873092385,-0.0596171227,4.1704994105
 H,0,-1.3840340478,4.2711787721,2.0268072041
 C,0,-2.9648675567,0.1224120395,3.1501300989
 C,0,-2.3982182253,3.4602242296,0.2541532814
 P,0,-3.0031200178,1.7640709217,0.8858230187
 H,0,-4.9258651397,-3.6023624155,-0.3666053499
 C,0,-2.1840637399,4.5317548876,1.3218067298
 H,0,-4.1590233916,-1.3448054904,-3.2178403192
 H,0,-4.6716493189,-3.8174079499,-3.4406946008
 H,0,-1.8799651908,5.463806511,0.8163836916
 C,0,-4.6946052808,-1.8767566791,-2.4220468314
 H,0,-2.6417663056,2.1870413575,4.701092181
 C,0,-3.5568628035,0.8844417656,-1.9485394778
 C,0,-2.9351077561,2.5196025382,3.691139982
 H,0,-3.6718066602,3.3006553778,-1.5414298724
 C,0,-3.4059316046,4.0168048447,-0.7550499208
 H,0,-2.516273775,3.5194575174,3.5454532093
 H,0,-2.9483494866,4.8877611507,-1.25293381
 C,0,-5.344243653,-1.6669367293,0.4914587389
 N,0,-4.8442557899,-0.424315917,0.5619760385
 C,0,-5.3822055606,-3.1084029092,-2.9912509188
 H,0,-4.0638754109,0.1098503747,3.2051629829
 H,0,-5.4444090868,-1.1714542862,-2.0343874995
 H,0,-3.1010525464,4.7513458451,1.8881571467
 H,0,-5.981954962,-3.649778824,-2.2440441373
 C,0,-4.8690024685,1.9302285618,1.0833211741
 H,0,-6.0714796789,-2.7872997326,-3.7864208221
 H,0,-4.0330910928,2.5978171985,3.6912497799
 C,0,-5.5261847016,0.580914643,1.1371312502
 C,0,-6.5974670588,-1.9650396989,1.011629638
 H,0,-4.3267050649,4.3708078602,-0.2657771154
 H,0,-6.996775185,-2.9779054276,0.9429633373
 H,0,-5.1991826376,2.4190573165,0.1519468734
 H,0,-5.1878651075,2.5691147425,1.9196288097
 C,0,-6.7798802909,0.3394925569,1.6993834154
 C,0,-7.3174136069,-0.9436924569,1.6330911287
 H,0,-7.3289927979,1.1523917994,2.1766414913
 H,0,-8.3010663512,-1.1473793523,2.059985993
 O,0,-3.8903473963,1.4303031282,-2.9275314278
 C,0,1.9423453478,3.8984793297,-2.6650136675
 H,0,0.5926190115,-1.4619909959,1.7716902764
 O,0,-0.2832188205,0.2988151803,-2.6813221794
 H,0,1.0083744429,-3.3621822656,0.2375585358
 O,0,1.5851663226,0.9409337871,0.352576822
 H,0,0.5048216135,-0.0625644421,-2.2291718762
 C,0,1.986162049,2.4471033626,-2.2135573276
 H,0,0.6532989012,-1.550030294,3.5535761803
 C,0,1.1353626707,-1.8937115948,2.6228659102
 H,0,1.8917963806,-3.0769002213,-1.2605717583
 H,0,1.0110893143,-2.9854551339,2.5758397264
 C,0,1.8692478536,-3.7008177144,-0.356646659
 H,0,1.7059735754,-4.753220636,-0.6449434477
 H,0,2.7324832316,2.8052512918,0.1302067477
 Ru,0,3.0498855108,-0.1176361979,-0.7012752679
 H,0,2.2165898008,0.6196216682,2.1538559324
 N,0,3.2790872889,1.9625223333,-1.6772142907
 C,0,3.6436493608,2.7639587038,-0.4883222861
 C,0,2.6058101641,-1.4755170409,2.6397187927
 H,0,2.166116894,0.1978498655,3.9086274268
 H,0,2.3506597331,-4.4606970007,2.2513151915
 C,0,2.6907357302,0.0244925263,2.952963358
 C,0,3.1927138498,-3.5924725898,0.4111891747
 P,0,3.3452439466,-1.7532228708,0.8939668819
 H,0,3.950404792,3.7864234236,-0.7682507358
 C,0,3.2022909763,-4.587198688,1.5713499649
 H,0,5.2379882201,1.5208203238,-2.231116531
 H,0,3.5694663847,0.4388687696,-3.9026006166
 H,0,3.1359834941,-5.6053397272,1.151841933
 C,0,4.3712261137,2.0375985787,-2.6706822049
 H,0,2.8731785842,-1.9321816575,4.7141143804
 C,0,4.1826334592,-0.9506176838,-1.8573792057
 C,0,3.3494483925,-2.2113333435,3.7589260857
 H,0,4.4414123555,-3.3147049544,-1.3862238477
 C,0,4.3442004839,-3.978117659,-0.5201024211
 H,0,3.3106420134,-3.3028224427,3.6835946818
 H,0,4.1504602118,-4.9935003369,-0.9046556415
 C,0,4.7118934663,2.1139586688,0.3420162977
 N,0,4.5814127357,0.7863281073,0.4586855423
 C,0,4.0273053796,1.4305240952,-4.0161410287
 H,0,3.7318288334,0.3532806196,3.0948308554
 H,0,4.6684028682,3.0961891012,-2.8073437816
 H,0,4.1328763429,-4.5365910568,2.1559871453
 H,0,3.3357115997,2.0639830368,-4.5895413586
 C,0,5.1737408004,-1.4269328206,1.2084567935
 H,0,4.9467745805,1.3134573912,-4.6079013156
 H,0,4.4029140723,-1.9022941902,3.8326596924
 C,0,5.4210244978,0.0544263379,1.2123929003
 C,0,5.730333443,2.7909125841,1.0057962277
 H,0,5.3090279883,-4.0129470607,0.0096592814
 H,0,5.8327505236,3.8713748382,0.8978256309
 H,0,5.6937101931,-1.8555227873,0.3359879459
 H,0,5.5826399755,-1.9072470381,2.1084118029
 C,0,6.4499189545,0.6781828527,1.9171936494
 C,0,6.6020785024,2.0584428054,1.8095666361
 H,0,7.1243463485,0.0852908462,2.5360319922
 H,0,7.4061784415,2.5632811045,2.3483906337
 H,0,0.7771922352,0.4255892785,0.227856713
 O,0,4.8802433919,-1.4524202327,-2.6511150278
 H,0,0.9398664436,4.1025351533,-3.0700891088
 H,0,2.6680200296,4.1264862788,-3.4619731785
 H,0,2.1085859728,4.6081772767,-1.8396901475
 H,0,1.265706793,2.2547170164,-1.4101007439
 H,0,1.70276043,1.7837202919,-3.0366644349
 H,0,1.8552861612,-0.776952941,-1.5576298628
 Recover connectivity data from disk.
                           ----------------------------
                           !    Current Parameters    !
                           ! (Angstroms and Degrees)  !
 --------------------------                            --------------------------
 ! Name  Definition              Value                                          !
 --------------------------------------------------------------------------------
 ! R1    R(1,2)                  1.1003                                         !
 ! R2    R(2,3)                  1.1007                                         !
 ! R3    R(2,4)                  1.1005                                         !
 ! R4    R(2,10)                 1.5125                                         !
 ! R5    R(5,13)                 1.0967                                         !
 ! R6    R(6,8)                  1.3052                                         !
 ! R7    R(6,20)                 2.1169                                         !
 ! R8    R(7,17)                 1.1007                                         !
 ! R9    R(8,69)                 2.8606                                         !
 ! R10   R(9,66)                 0.9746                                         !
 ! R11   R(10,12)                1.1075                                         !
 ! R12   R(10,16)                1.0977                                         !
 ! R13   R(10,22)                1.4833                                         !
 ! R14   R(11,13)                1.1029                                         !
 ! R15   R(13,15)                1.0988                                         !
 ! R16   R(13,24)                1.5284                                         !
 ! R17   R(14,17)                1.099                                          !
 ! R18   R(17,18)                1.1034                                         !
 ! R19   R(17,28)                1.532                                          !
 ! R20   R(19,23)                1.1022                                         !
 ! R21   R(20,29)                2.3041                                         !
 ! R22   R(20,37)                1.8273                                         !
 ! R23   R(20,44)                2.1408                                         !
 ! R24   R(21,27)                1.0955                                         !
 ! R25   R(22,23)                1.4807                                         !
 ! R26   R(22,35)                1.484                                          !
 ! R27   R(23,30)                1.1031                                         !
 ! R28   R(23,43)                1.503                                          !
 ! R29   R(24,27)                1.5348                                         !
 ! R30   R(24,29)                1.9122                                         !
 ! R31   R(24,38)                1.5316                                         !
 ! R32   R(25,27)                1.1031                                         !
 ! R33   R(26,31)                1.0977                                         !
 ! R34   R(27,46)                1.1005                                         !
 ! R35   R(28,29)                1.9084                                         !
 ! R36   R(28,31)                1.5277                                         !
 ! R37   R(28,40)                1.5309                                         !
 ! R38   R(29,50)                1.8836                                         !
 ! R39   R(31,34)                1.103                                          !
 ! R40   R(31,48)                1.0999                                         !
 ! R41   R(32,35)                1.0969                                         !
 ! R42   R(33,45)                1.0998                                         !
 ! R43   R(35,45)                1.5211                                         !
 ! R44   R(35,47)                1.1                                            !
 ! R45   R(36,38)                1.103                                          !
 ! R46   R(37,63)                1.1694                                         !
 ! R47   R(38,41)                1.0938                                         !
 ! R48   R(38,52)                1.1008                                         !
 ! R49   R(39,40)                1.0963                                         !
 ! R50   R(40,42)                1.1026                                         !
 ! R51   R(40,55)                1.1011                                         !
 ! R52   R(43,44)                1.3413                                         !
 ! R53   R(43,54)                1.3892                                         !
 ! R54   R(44,53)                1.344                                          !
 ! R55   R(45,49)                1.1005                                         !
 ! R56   R(45,51)                1.1002                                         !
 ! R57   R(50,53)                1.5018                                         !
 ! R58   R(50,57)                1.1025                                         !
 ! R59   R(50,58)                1.0997                                         !
 ! R60   R(53,59)                1.3951                                         !
 ! R61   R(54,56)                1.0909                                         !
 ! R62   R(54,60)                1.3956                                         !
 ! R63   R(59,60)                1.3928                                         !
 ! R64   R(59,61)                1.0909                                         !
 ! R65   R(60,62)                1.0915                                         !
 ! R66   R(64,70)                1.5206                                         !
 ! R67   R(64,123)               1.1003                                         !
 ! R68   R(64,124)               1.1017                                         !
 ! R69   R(64,125)               1.1011                                         !
 ! R70   R(65,72)                1.0979                                         !
 ! R71   R(66,69)                0.9778                                         !
 ! R72   R(67,75)                1.0995                                         !
 ! R73   R(68,78)                2.092                                          !
 ! R74   R(68,121)               0.9664                                         !
 ! R75   R(69,128)               1.6689                                         !
 ! R76   R(70,80)                1.4813                                         !
 ! R77   R(70,126)               1.0962                                         !
 ! R78   R(70,127)               1.0945                                         !
 ! R79   R(71,72)                1.1031                                         !
 ! R80   R(72,74)                1.0998                                         !
 ! R81   R(72,82)                1.5289                                         !
 ! R82   R(73,75)                1.0986                                         !
 ! R83   R(75,76)                1.1033                                         !
 ! R84   R(75,86)                1.5339                                         !
 ! R85   R(77,81)                1.102                                          !
 ! R86   R(78,87)                2.3037                                         !
 ! R87   R(78,95)                1.8203                                         !
 ! R88   R(78,102)               2.1233                                         !
 ! R89   R(78,128)               1.6109                                         !
 ! R90   R(79,85)                1.1034                                         !
 ! R91   R(80,81)                1.4794                                         !
 ! R92   R(80,93)                1.4783                                         !
 ! R93   R(81,88)                1.1036                                         !
 ! R94   R(81,101)               1.501                                          !
 ! R95   R(82,85)                1.5347                                         !
 ! R96   R(82,87)                1.9161                                         !
 ! R97   R(82,96)                1.532                                          !
 ! R98   R(83,85)                1.1039                                         !
 ! R99   R(84,89)                1.0971                                         !
 ! R100  R(85,104)               1.101                                          !
 ! R101  R(86,87)                1.9077                                         !
 ! R102  R(86,89)                1.5282                                         !
 ! R103  R(86,98)                1.5303                                         !
 ! R104  R(87,108)               1.8838                                         !
 ! R105  R(89,92)                1.1032                                         !
 ! R106  R(89,106)               1.1002                                         !
 ! R107  R(90,93)                1.1007                                         !
 ! R108  R(91,103)               1.0981                                         !
 ! R109  R(93,103)               1.5156                                         !
 ! R110  R(93,105)               1.108                                          !
 ! R111  R(94,96)                1.1032                                         !
 ! R112  R(95,122)               1.1698                                         !
 ! R113  R(96,99)                1.0948                                         !
 ! R114  R(96,110)               1.1003                                         !
 ! R115  R(97,98)                1.0953                                         !
 ! R116  R(98,100)               1.1029                                         !
 ! R117  R(98,113)               1.1013                                         !
 ! R118  R(101,102)              1.3391                                         !
 ! R119  R(101,112)              1.3914                                         !
 ! R120  R(102,111)              1.3449                                         !
 ! R121  R(103,107)              1.0993                                         !
 ! R122  R(103,109)              1.0997                                         !
 ! R123  R(108,111)              1.5019                                         !
 ! R124  R(108,115)              1.1024                                         !
 ! R125  R(108,116)              1.099                                          !
 ! R126  R(111,117)              1.3944                                         !
 ! R127  R(112,114)              1.0907                                         !
 ! R128  R(112,118)              1.3937                                         !
 ! R129  R(117,118)              1.3928                                         !
 ! R130  R(117,119)              1.0906                                         !
 ! R131  R(118,120)              1.0917                                         !
 ! A1    A(1,2,3)              107.2601                                         !
 ! A2    A(1,2,4)              107.2289                                         !
 ! A3    A(1,2,10)             108.4415                                         !
 ! A4    A(3,2,4)              108.9331                                         !
 ! A5    A(3,2,10)             112.7305                                         !
 ! A6    A(4,2,10)             111.9902                                         !
 ! A7    A(8,6,20)              98.8006                                         !
 ! A8    A(6,8,69)             142.7143                                         !
 ! A9    A(2,10,12)            110.4866                                         !
 ! A10   A(2,10,16)            109.5335                                         !
 ! A11   A(2,10,22)            114.3453                                         !
 ! A12   A(12,10,16)           107.1921                                         !
 ! A13   A(12,10,22)           108.8206                                         !
 ! A14   A(16,10,22)           106.1459                                         !
 ! A15   A(5,13,11)            107.7119                                         !
 ! A16   A(5,13,15)            107.444                                          !
 ! A17   A(5,13,24)            112.0022                                         !
 ! A18   A(11,13,15)           107.4129                                         !
 ! A19   A(11,13,24)           109.2962                                         !
 ! A20   A(15,13,24)           112.7495                                         !
 ! A21   A(7,17,14)            106.8259                                         !
 ! A22   A(7,17,18)            107.9945                                         !
 ! A23   A(7,17,28)            113.0557                                         !
 ! A24   A(14,17,18)           108.2525                                         !
 ! A25   A(14,17,28)           111.5937                                         !
 ! A26   A(18,17,28)           108.9498                                         !
 ! A27   A(6,20,29)             96.38                                           !
 ! A28   A(6,20,37)            160.2441                                         !
 ! A29   A(6,20,44)             95.6776                                         !
 ! A30   A(29,20,37)            93.1722                                         !
 ! A31   A(29,20,44)            80.6174                                         !
 ! A32   A(37,20,44)           102.9317                                         !
 ! A33   A(10,22,23)           107.7782                                         !
 ! A34   A(10,22,35)           112.2849                                         !
 ! A35   A(23,22,35)           110.4208                                         !
 ! A36   A(19,23,22)           106.2702                                         !
 ! A37   A(19,23,30)           107.6576                                         !
 ! A38   A(19,23,43)           107.965                                          !
 ! A39   A(22,23,30)           111.6999                                         !
 ! A40   A(22,23,43)           112.1005                                         !
 ! A41   A(30,23,43)           110.8683                                         !
 ! A42   A(13,24,27)           108.8914                                         !
 ! A43   A(13,24,29)           108.201                                          !
 ! A44   A(13,24,38)           110.4265                                         !
 ! A45   A(27,24,29)           107.9749                                         !
 ! A46   A(27,24,38)           106.5442                                         !
 ! A47   A(29,24,38)           114.6501                                         !
 ! A48   A(21,27,24)           112.3341                                         !
 ! A49   A(21,27,25)           107.8592                                         !
 ! A50   A(21,27,46)           109.4361                                         !
 ! A51   A(24,27,25)           107.767                                          !
 ! A52   A(24,27,46)           112.1248                                         !
 ! A53   A(25,27,46)           107.0782                                         !
 ! A54   A(17,28,29)           105.4724                                         !
 ! A55   A(17,28,31)           109.3808                                         !
 ! A56   A(17,28,40)           109.2205                                         !
 ! A57   A(29,28,31)           115.8814                                         !
 ! A58   A(29,28,40)           109.4318                                         !
 ! A59   A(31,28,40)           107.3354                                         !
 ! A60   A(20,29,24)           116.5983                                         !
 ! A61   A(20,29,28)           120.9844                                         !
 ! A62   A(20,29,50)            97.3873                                         !
 ! A63   A(24,29,28)           110.2946                                         !
 ! A64   A(24,29,50)           102.3475                                         !
 ! A65   A(28,29,50)           105.6814                                         !
 ! A66   A(26,31,28)           112.6129                                         !
 ! A67   A(26,31,34)           107.0942                                         !
 ! A68   A(26,31,48)           108.9232                                         !
 ! A69   A(28,31,34)           108.1253                                         !
 ! A70   A(28,31,48)           112.5197                                         !
 ! A71   A(34,31,48)           107.2824                                         !
 ! A72   A(22,35,32)           106.8556                                         !
 ! A73   A(22,35,45)           116.7055                                         !
 ! A74   A(22,35,47)           106.543                                          !
 ! A75   A(32,35,45)           109.9939                                         !
 ! A76   A(32,35,47)           106.1152                                         !
 ! A77   A(45,35,47)           110.0554                                         !
 ! A78   A(24,38,36)           107.9233                                         !
 ! A79   A(24,38,41)           113.842                                          !
 ! A80   A(24,38,52)           112.3667                                         !
 ! A81   A(36,38,41)           107.2014                                         !
 ! A82   A(36,38,52)           106.6547                                         !
 ! A83   A(41,38,52)           108.4825                                         !
 ! A84   A(28,40,39)           113.265                                          !
 ! A85   A(28,40,42)           108.1594                                         !
 ! A86   A(28,40,55)           111.9862                                         !
 ! A87   A(39,40,42)           107.0212                                         !
 ! A88   A(39,40,55)           109.0214                                         !
 ! A89   A(42,40,55)           107.0798                                         !
 ! A90   A(23,43,44)           113.574                                          !
 ! A91   A(23,43,54)           125.3558                                         !
 ! A92   A(44,43,54)           121.0225                                         !
 ! A93   A(20,44,43)           116.1934                                         !
 ! A94   A(20,44,53)           121.6576                                         !
 ! A95   A(43,44,53)           121.7546                                         !
 ! A96   A(33,45,35)           112.5108                                         !
 ! A97   A(33,45,49)           108.2056                                         !
 ! A98   A(33,45,51)           107.3105                                         !
 ! A99   A(35,45,49)           112.992                                          !
 ! A100  A(35,45,51)           108.5017                                         !
 ! A101  A(49,45,51)           107.0296                                         !
 ! A102  A(29,50,53)           110.9756                                         !
 ! A103  A(29,50,57)           104.312                                          !
 ! A104  A(29,50,58)           114.722                                          !
 ! A105  A(53,50,57)           107.3127                                         !
 ! A106  A(53,50,58)           111.5833                                         !
 ! A107  A(57,50,58)           107.34                                           !
 ! A108  A(44,53,50)           115.7619                                         !
 ! A109  A(44,53,59)           119.9351                                         !
 ! A110  A(50,53,59)           124.2759                                         !
 ! A111  A(43,54,56)           120.3883                                         !
 ! A112  A(43,54,60)           118.363                                          !
 ! A113  A(56,54,60)           121.2444                                         !
 ! A114  A(53,59,60)           119.1491                                         !
 ! A115  A(53,59,61)           119.981                                          !
 ! A116  A(60,59,61)           120.8683                                         !
 ! A117  A(54,60,59)           119.7581                                         !
 ! A118  A(54,60,62)           120.166                                          !
 ! A119  A(59,60,62)           120.0747                                         !
 ! A120  A(70,64,123)          108.2138                                         !
 ! A121  A(70,64,124)          113.1618                                         !
 ! A122  A(70,64,125)          112.8488                                         !
 ! A123  A(123,64,124)         107.1831                                         !
 ! A124  A(123,64,125)         107.0951                                         !
 ! A125  A(124,64,125)         108.0213                                         !
 ! A126  A(9,66,69)            101.8076                                         !
 ! A127  A(78,68,121)          104.5082                                         !
 ! A128  A(8,69,66)            100.6175                                         !
 ! A129  A(8,69,128)            80.8358                                         !
 ! A130  A(64,70,80)           116.4169                                         !
 ! A131  A(64,70,126)          111.4808                                         !
 ! A132  A(64,70,127)          110.3517                                         !
 ! A133  A(80,70,126)          104.5288                                         !
 ! A134  A(80,70,127)          107.4597                                         !
 ! A135  A(126,70,127)         105.9419                                         !
 ! A136  A(65,72,71)           108.3956                                         !
 ! A137  A(65,72,74)           107.5372                                         !
 ! A138  A(65,72,82)           112.1132                                         !
 ! A139  A(71,72,74)           107.2167                                         !
 ! A140  A(71,72,82)           109.0144                                         !
 ! A141  A(74,72,82)           112.376                                          !
 ! A142  A(67,75,73)           106.6087                                         !
 ! A143  A(67,75,76)           108.6102                                         !
 ! A144  A(67,75,86)           112.5367                                         !
 ! A145  A(73,75,76)           109.2542                                         !
 ! A146  A(73,75,86)           110.7357                                         !
 ! A147  A(76,75,86)           109.0173                                         !
 ! A148  A(68,78,87)            95.75                                           !
 ! A149  A(68,78,102)           90.8245                                         !
 ! A150  A(68,78,128)           87.4601                                         !
 ! A151  A(87,78,95)            92.0128                                         !
 ! A152  A(87,78,102)           80.2988                                         !
 ! A153  A(87,78,128)           99.9392                                         !
 ! A154  A(95,78,102)           95.3324                                         !
 ! A155  A(95,78,128)           86.3623                                         !
 ! A156  A(70,80,81)           109.199                                          !
 ! A157  A(70,80,93)           112.6374                                         !
 ! A158  A(81,80,93)           109.2989                                         !
 ! A159  A(77,81,80)           105.5211                                         !
 ! A160  A(77,81,88)           109.7227                                         !
 ! A161  A(77,81,101)          107.1071                                         !
 ! A162  A(80,81,88)           111.5036                                         !
 ! A163  A(80,81,101)          112.6644                                         !
 ! A164  A(88,81,101)          110.1026                                         !
 ! A165  A(72,82,85)           108.8336                                         !
 ! A166  A(72,82,87)           108.752                                          !
 ! A167  A(72,82,96)           110.0923                                         !
 ! A168  A(85,82,87)           107.8338                                         !
 ! A169  A(85,82,96)           107.0654                                         !
 ! A170  A(87,82,96)           114.1211                                         !
 ! A171  A(79,85,82)           110.8274                                         !
 ! A172  A(79,85,83)           109.7578                                         !
 ! A173  A(79,85,104)          109.7908                                         !
 ! A174  A(82,85,83)           107.6915                                         !
 ! A175  A(82,85,104)          111.7473                                         !
 ! A176  A(83,85,104)          106.9149                                         !
 ! A177  A(75,86,87)           105.2938                                         !
 ! A178  A(75,86,89)           109.8428                                         !
 ! A179  A(75,86,98)           109.0736                                         !
 ! A180  A(87,86,89)           115.7809                                         !
 ! A181  A(87,86,98)           109.6825                                         !
 ! A182  A(89,86,98)           107.0519                                         !
 ! A183  A(78,87,82)           118.5886                                         !
 ! A184  A(78,87,86)           119.935                                          !
 ! A185  A(78,87,108)           96.7232                                         !
 ! A186  A(82,87,86)           109.8433                                         !
 ! A187  A(82,87,108)          101.383                                          !
 ! A188  A(86,87,108)          106.6696                                         !
 ! A189  A(84,89,86)           112.9911                                         !
 ! A190  A(84,89,92)           107.1843                                         !
 ! A191  A(84,89,106)          108.7805                                         !
 ! A192  A(86,89,92)           108.1594                                         !
 ! A193  A(86,89,106)          112.258                                          !
 ! A194  A(92,89,106)          107.1802                                         !
 ! A195  A(80,93,90)           106.8304                                         !
 ! A196  A(80,93,103)          114.117                                          !
 ! A197  A(80,93,105)          109.2424                                         !
 ! A198  A(90,93,103)          110.1909                                         !
 ! A199  A(90,93,105)          106.6556                                         !
 ! A200  A(103,93,105)         109.5155                                         !
 ! A201  A(82,96,94)           107.5438                                         !
 ! A202  A(82,96,99)           114.2915                                         !
 ! A203  A(82,96,110)          112.2584                                         !
 ! A204  A(94,96,99)           107.2501                                         !
 ! A205  A(94,96,110)          106.5128                                         !
 ! A206  A(99,96,110)          108.5762                                         !
 ! A207  A(86,98,97)           113.2883                                         !
 ! A208  A(86,98,100)          108.1803                                         !
 ! A209  A(86,98,113)          111.9903                                         !
 ! A210  A(97,98,100)          107.3069                                         !
 ! A211  A(97,98,113)          108.7712                                         !
 ! A212  A(100,98,113)         107.0085                                         !
 ! A213  A(81,101,102)         114.09                                           !
 ! A214  A(81,101,112)         125.0374                                         !
 ! A215  A(102,101,112)        120.8036                                         !
 ! A216  A(78,102,101)         116.4091                                         !
 ! A217  A(78,102,111)         121.6539                                         !
 ! A218  A(101,102,111)        121.8394                                         !
 ! A219  A(91,103,93)          111.3788                                         !
 ! A220  A(91,103,107)         108.1806                                         !
 ! A221  A(91,103,109)         107.9451                                         !
 ! A222  A(93,103,107)         112.0249                                         !
 ! A223  A(93,103,109)         109.306                                          !
 ! A224  A(107,103,109)        107.86                                           !
 ! A225  A(87,108,111)         109.3353                                         !
 ! A226  A(87,108,115)         104.9728                                         !
 ! A227  A(87,108,116)         114.97                                           !
 ! A228  A(111,108,115)        107.932                                          !
 ! A229  A(111,108,116)        111.572                                          !
 ! A230  A(115,108,116)        107.6188                                         !
 ! A231  A(102,111,108)        115.6278                                         !
 ! A232  A(102,111,117)        120.0312                                         !
 ! A233  A(108,111,117)        124.3348                                         !
 ! A234  A(101,112,114)        120.2299                                         !
 ! A235  A(101,112,118)        118.505                                          !
 ! A236  A(114,112,118)        121.2642                                         !
 ! A237  A(111,117,118)        119.0026                                         !
 ! A238  A(111,117,119)        119.9953                                         !
 ! A239  A(118,117,119)        121.0011                                         !
 ! A240  A(112,118,117)        119.805                                          !
 ! A241  A(112,118,120)        120.1534                                         !
 ! A242  A(117,118,120)        120.0404                                         !
 ! A243  A(69,128,78)          129.7017                                         !
 ! A244  L(20,37,63,2,-1)      175.7777                                         !
 ! A245  L(66,69,128,8,-1)     181.4533                                         !
 ! A246  L(68,78,95,87,-1)     187.7627                                         !
 ! A247  L(102,78,128,68,-1)   178.2846                                         !
 ! A248  L(78,95,122,1,-1)     178.7965                                         !
 ! A249  L(20,37,63,2,-2)      179.1342                                         !
 ! A250  L(66,69,128,8,-2)     175.3489                                         !
 ! A251  L(68,78,95,87,-2)     175.078                                          !
 ! A252  L(102,78,128,68,-2)   179.9274                                         !
 ! A253  L(78,95,122,1,-2)     176.8153                                         !
 ! D1    D(1,2,10,12)          -63.26                                           !
 ! D2    D(1,2,10,16)           54.6025                                         !
 ! D3    D(1,2,10,22)          173.5751                                         !
 ! D4    D(3,2,10,12)           55.3474                                         !
 ! D5    D(3,2,10,16)          173.2099                                         !
 ! D6    D(3,2,10,22)          -67.8175                                         !
 ! D7    D(4,2,10,12)          178.616                                          !
 ! D8    D(4,2,10,16)          -63.5215                                         !
 ! D9    D(4,2,10,22)           55.4511                                         !
 ! D10   D(20,6,8,69)            3.7797                                         !
 ! D11   D(8,6,20,29)         -105.5076                                         !
 ! D12   D(8,6,20,37)           12.921                                          !
 ! D13   D(8,6,20,44)          173.3358                                         !
 ! D14   D(6,8,69,66)          -13.6798                                         !
 ! D15   D(6,8,69,128)         170.9713                                         !
 ! D16   D(2,10,22,23)         177.1854                                         !
 ! D17   D(2,10,22,35)          55.3558                                         !
 ! D18   D(12,10,22,23)         53.1253                                         !
 ! D19   D(12,10,22,35)        -68.7043                                         !
 ! D20   D(16,10,22,23)        -61.9472                                         !
 ! D21   D(16,10,22,35)        176.2231                                         !
 ! D22   D(5,13,24,27)          63.7057                                         !
 ! D23   D(5,13,24,29)         -53.4151                                         !
 ! D24   D(5,13,24,38)        -179.6399                                         !
 ! D25   D(11,13,24,27)        -55.5779                                         !
 ! D26   D(11,13,24,29)       -172.6986                                         !
 ! D27   D(11,13,24,38)         61.0766                                         !
 ! D28   D(15,13,24,27)       -174.9598                                         !
 ! D29   D(15,13,24,29)         67.9194                                         !
 ! D30   D(15,13,24,38)        -58.3054                                         !
 ! D31   D(7,17,28,29)         -57.7498                                         !
 ! D32   D(7,17,28,31)          67.5255                                         !
 ! D33   D(7,17,28,40)        -175.2709                                         !
 ! D34   D(14,17,28,29)         62.7011                                         !
 ! D35   D(14,17,28,31)       -172.0236                                         !
 ! D36   D(14,17,28,40)        -54.82                                           !
 ! D37   D(18,17,28,29)       -177.8238                                         !
 ! D38   D(18,17,28,31)        -52.5485                                         !
 ! D39   D(18,17,28,40)         64.655                                          !
 ! D40   D(6,20,29,24)         -14.98                                           !
 ! D41   D(6,20,29,28)         123.8834                                         !
 ! D42   D(6,20,29,50)        -122.8027                                         !
 ! D43   D(37,20,29,24)       -177.66                                           !
 ! D44   D(37,20,29,28)        -38.7966                                         !
 ! D45   D(37,20,29,50)         74.5173                                         !
 ! D46   D(44,20,29,24)         79.7477                                         !
 ! D47   D(44,20,29,28)       -141.3889                                         !
 ! D48   D(44,20,29,50)        -28.075                                          !
 ! D49   D(6,20,44,43)         -67.5312                                         !
 ! D50   D(6,20,44,53)         119.5601                                         !
 ! D51   D(29,20,44,43)       -163.0836                                         !
 ! D52   D(29,20,44,53)         24.0076                                         !
 ! D53   D(37,20,44,43)        105.7929                                         !
 ! D54   D(37,20,44,53)        -67.1159                                         !
 ! D55   D(10,22,23,19)         51.9618                                         !
 ! D56   D(10,22,23,30)        -65.1821                                         !
 ! D57   D(10,22,23,43)        169.6912                                         !
 ! D58   D(35,22,23,19)        174.9396                                         !
 ! D59   D(35,22,23,30)         57.7958                                         !
 ! D60   D(35,22,23,43)        -67.3309                                         !
 ! D61   D(10,22,35,32)        -67.1465                                         !
 ! D62   D(10,22,35,45)         56.3817                                         !
 ! D63   D(10,22,35,47)        179.7404                                         !
 ! D64   D(23,22,35,32)        172.5427                                         !
 ! D65   D(23,22,35,45)        -63.929                                          !
 ! D66   D(23,22,35,47)         59.4297                                         !
 ! D67   D(19,23,43,44)         74.3464                                         !
 ! D68   D(19,23,43,54)       -103.151                                          !
 ! D69   D(22,23,43,44)        -42.3683                                         !
 ! D70   D(22,23,43,54)        140.1343                                         !
 ! D71   D(30,23,43,44)       -167.9516                                         !
 ! D72   D(30,23,43,54)         14.551                                          !
 ! D73   D(13,24,27,21)        -58.7373                                         !
 ! D74   D(13,24,27,25)         59.9349                                         !
 ! D75   D(13,24,27,46)        177.5269                                         !
 ! D76   D(29,24,27,21)         58.5272                                         !
 ! D77   D(29,24,27,25)        177.1994                                         !
 ! D78   D(29,24,27,46)        -65.2086                                         !
 ! D79   D(38,24,27,21)       -177.8455                                         !
 ! D80   D(38,24,27,25)        -59.1733                                         !
 ! D81   D(38,24,27,46)         58.4187                                         !
 ! D82   D(13,24,29,20)         79.4938                                         !
 ! D83   D(13,24,29,28)        -63.5421                                         !
 ! D84   D(13,24,29,50)       -175.6254                                         !
 ! D85   D(27,24,29,20)        -38.2159                                         !
 ! D86   D(27,24,29,28)        178.7482                                         !
 ! D87   D(27,24,29,50)         66.6649                                         !
 ! D88   D(38,24,29,20)       -156.788                                          !
 ! D89   D(38,24,29,28)         60.1761                                         !
 ! D90   D(38,24,29,50)        -51.9072                                         !
 ! D91   D(13,24,38,36)        -64.2286                                         !
 ! D92   D(13,24,38,41)         54.6367                                         !
 ! D93   D(13,24,38,52)        178.4604                                         !
 ! D94   D(27,24,38,36)         53.874                                          !
 ! D95   D(27,24,38,41)        172.7393                                         !
 ! D96   D(27,24,38,52)        -63.437                                          !
 ! D97   D(29,24,38,36)        173.2489                                         !
 ! D98   D(29,24,38,41)        -67.8858                                         !
 ! D99   D(29,24,38,52)         55.9378                                         !
 ! D100  D(17,28,29,20)        -47.5224                                         !
 ! D101  D(17,28,29,24)         93.6362                                         !
 ! D102  D(17,28,29,50)       -156.4488                                         !
 ! D103  D(31,28,29,20)       -168.6542                                         !
 ! D104  D(31,28,29,24)        -27.4956                                         !
 ! D105  D(31,28,29,50)         82.4195                                         !
 ! D106  D(40,28,29,20)         69.8561                                         !
 ! D107  D(40,28,29,24)       -148.9853                                         !
 ! D108  D(40,28,29,50)        -39.0703                                         !
 ! D109  D(17,28,31,26)        -54.7295                                         !
 ! D110  D(17,28,31,34)         63.3953                                         !
 ! D111  D(17,28,31,48)       -178.3029                                         !
 ! D112  D(29,28,31,26)         64.2829                                         !
 ! D113  D(29,28,31,34)       -177.5923                                         !
 ! D114  D(29,28,31,48)        -59.2904                                         !
 ! D115  D(40,28,31,26)       -173.1143                                         !
 ! D116  D(40,28,31,34)        -54.9895                                         !
 ! D117  D(40,28,31,48)         63.3123                                         !
 ! D118  D(17,28,40,39)         64.5288                                         !
 ! D119  D(17,28,40,42)        -53.919                                          !
 ! D120  D(17,28,40,55)       -171.679                                          !
 ! D121  D(29,28,40,39)        -50.4687                                         !
 ! D122  D(29,28,40,42)       -168.9164                                         !
 ! D123  D(29,28,40,55)         73.3235                                         !
 ! D124  D(31,28,40,39)       -176.9827                                         !
 ! D125  D(31,28,40,42)         64.5695                                         !
 ! D126  D(31,28,40,55)        -53.1905                                         !
 ! D127  D(20,29,50,53)         36.3272                                         !
 ! D128  D(20,29,50,57)        -78.9324                                         !
 ! D129  D(20,29,50,58)        163.9328                                         !
 ! D130  D(24,29,50,53)        -83.0497                                         !
 ! D131  D(24,29,50,57)        161.6907                                         !
 ! D132  D(24,29,50,58)         44.556                                          !
 ! D133  D(28,29,50,53)        161.4674                                         !
 ! D134  D(28,29,50,57)         46.2078                                         !
 ! D135  D(28,29,50,58)        -70.9269                                         !
 ! D136  D(22,35,45,33)        -61.6077                                         !
 ! D137  D(22,35,45,49)         61.2962                                         !
 ! D138  D(22,35,45,51)        179.8161                                         !
 ! D139  D(32,35,45,33)         60.2927                                         !
 ! D140  D(32,35,45,49)       -176.8034                                         !
 ! D141  D(32,35,45,51)        -58.2835                                         !
 ! D142  D(47,35,45,33)        176.8612                                         !
 ! D143  D(47,35,45,49)        -60.2349                                         !
 ! D144  D(47,35,45,51)         58.285                                          !
 ! D145  D(23,43,44,20)          9.6235                                         !
 ! D146  D(23,43,44,53)       -177.4752                                         !
 ! D147  D(54,43,44,20)       -172.7582                                         !
 ! D148  D(54,43,44,53)          0.1432                                         !
 ! D149  D(23,43,54,56)         -3.0679                                         !
 ! D150  D(23,43,54,60)        176.1901                                         !
 ! D151  D(44,43,54,56)        179.6088                                         !
 ! D152  D(44,43,54,60)         -1.1332                                         !
 ! D153  D(20,44,53,50)         -4.653                                          !
 ! D154  D(20,44,53,59)        173.5325                                         !
 ! D155  D(43,44,53,50)       -177.1676                                         !
 ! D156  D(43,44,53,59)          1.0179                                         !
 ! D157  D(29,50,53,44)        -23.864                                          !
 ! D158  D(29,50,53,59)        158.0389                                         !
 ! D159  D(57,50,53,44)         89.515                                          !
 ! D160  D(57,50,53,59)        -88.5821                                         !
 ! D161  D(58,50,53,44)       -153.1603                                         !
 ! D162  D(58,50,53,59)         28.7427                                         !
 ! D163  D(44,53,59,60)         -1.1491                                         !
 ! D164  D(44,53,59,61)        179.2925                                         !
 ! D165  D(50,53,59,60)        176.8732                                         !
 ! D166  D(50,53,59,61)         -2.6852                                         !
 ! D167  D(43,54,60,59)          0.9609                                         !
 ! D168  D(43,54,60,62)       -179.4458                                         !
 ! D169  D(56,54,60,59)       -179.7877                                         !
 ! D170  D(56,54,60,62)         -0.1945                                         !
 ! D171  D(53,59,60,54)          0.1505                                         !
 ! D172  D(53,59,60,62)       -179.4432                                         !
 ! D173  D(61,59,60,54)        179.7048                                         !
 ! D174  D(61,59,60,62)          0.1112                                         !
 ! D175  D(123,64,70,80)       177.9297                                         !
 ! D176  D(123,64,70,126)      -62.3004                                         !
 ! D177  D(123,64,70,127)       55.1375                                         !
 ! D178  D(124,64,70,80)        59.3067                                         !
 ! D179  D(124,64,70,126)      179.0765                                         !
 ! D180  D(124,64,70,127)      -63.4855                                         !
 ! D181  D(125,64,70,80)       -63.7458                                         !
 ! D182  D(125,64,70,126)       56.024                                          !
 ! D183  D(125,64,70,127)      173.462                                          !
 ! D184  D(9,66,69,8)           16.495                                          !
 ! D185  D(9,66,128,78)        -87.9417                                         !
 ! D186  D(121,68,78,87)       -77.5818                                         !
 ! D187  D(121,68,78,102)     -157.9143                                         !
 ! D188  D(121,68,78,128)       22.1583                                         !
 ! D189  D(8,69,128,78)       -102.2968                                         !
 ! D190  D(64,70,80,81)         60.4065                                         !
 ! D191  D(64,70,80,93)        -61.2207                                         !
 ! D192  D(126,70,80,81)       -63.0383                                         !
 ! D193  D(126,70,80,93)       175.3346                                         !
 ! D194  D(127,70,80,81)      -175.3069                                         !
 ! D195  D(127,70,80,93)        63.066                                          !
 ! D196  D(65,72,82,85)         68.5779                                         !
 ! D197  D(65,72,82,87)        -48.6489                                         !
 ! D198  D(65,72,82,96)       -174.362                                          !
 ! D199  D(71,72,82,85)        -51.4429                                         !
 ! D200  D(71,72,82,87)       -168.6697                                         !
 ! D201  D(71,72,82,96)         65.6172                                         !
 ! D202  D(74,72,82,85)       -170.1562                                         !
 ! D203  D(74,72,82,87)         72.6169                                         !
 ! D204  D(74,72,82,96)        -53.0962                                         !
 ! D205  D(67,75,86,87)        -57.9928                                         !
 ! D206  D(67,75,86,89)         67.32                                           !
 ! D207  D(67,75,86,98)       -175.6387                                         !
 ! D208  D(73,75,86,87)         61.2164                                         !
 ! D209  D(73,75,86,89)       -173.4708                                         !
 ! D210  D(73,75,86,98)        -56.4296                                         !
 ! D211  D(76,75,86,87)       -178.5558                                         !
 ! D212  D(76,75,86,89)        -53.243                                          !
 ! D213  D(76,75,86,98)         63.7982                                         !
 ! D214  D(68,78,87,82)        -13.2454                                         !
 ! D215  D(68,78,87,86)        126.2103                                         !
 ! D216  D(68,78,87,108)      -120.1374                                         !
 ! D217  D(95,78,87,82)        171.6766                                         !
 ! D218  D(95,78,87,86)        -48.8677                                         !
 ! D219  D(95,78,87,108)        64.7846                                         !
 ! D220  D(102,78,87,82)        76.609                                          !
 ! D221  D(102,78,87,86)      -143.9353                                         !
 ! D222  D(102,78,87,108)      -30.283                                          !
 ! D223  D(128,78,87,82)      -101.6653                                         !
 ! D224  D(128,78,87,86)        37.7903                                         !
 ! D225  D(128,78,87,108)      151.4427                                         !
 ! D226  D(68,78,102,101)      -63.7599                                         !
 ! D227  D(68,78,102,111)      119.7699                                         !
 ! D228  D(87,78,102,101)     -159.4525                                         !
 ! D229  D(87,78,102,111)       24.0773                                         !
 ! D230  D(95,78,102,101)      109.4113                                         !
 ! D231  D(95,78,102,111)      -67.059                                          !
 ! D232  D(101,102,128,69)     -19.8915                                         !
 ! D233  D(111,102,128,69)     162.9283                                         !
 ! D234  D(68,78,128,69)        44.0798                                         !
 ! D235  D(87,78,128,69)       139.4759                                         !
 ! D236  D(95,78,128,69)      -129.1151                                         !
 ! D237  D(70,80,81,77)         47.1612                                         !
 ! D238  D(70,80,81,88)        -71.9078                                         !
 ! D239  D(70,80,81,101)       163.7004                                         !
 ! D240  D(93,80,81,77)        170.7872                                         !
 ! D241  D(93,80,81,88)         51.7182                                         !
 ! D242  D(93,80,81,101)       -72.6736                                         !
 ! D243  D(70,80,93,90)       -171.6605                                         !
 ! D244  D(70,80,93,103)       -49.6213                                         !
 ! D245  D(70,80,93,105)        73.3308                                         !
 ! D246  D(81,80,93,90)         66.7691                                         !
 ! D247  D(81,80,93,103)      -171.1917                                         !
 ! D248  D(81,80,93,105)       -48.2396                                         !
 ! D249  D(77,81,101,102)       75.9121                                         !
 ! D250  D(77,81,101,112)     -101.0737                                         !
 ! D251  D(80,81,101,102)      -39.6781                                         !
 ! D252  D(80,81,101,112)      143.3361                                         !
 ! D253  D(88,81,101,102)     -164.8365                                         !
 ! D254  D(88,81,101,112)       18.1776                                         !
 ! D255  D(72,82,85,79)        -63.9474                                         !
 ! D256  D(72,82,85,83)         56.1172                                         !
 ! D257  D(72,82,85,104)       173.2488                                         !
 ! D258  D(87,82,85,79)         53.8621                                         !
 ! D259  D(87,82,85,83)        173.9267                                         !
 ! D260  D(87,82,85,104)       -68.9417                                         !
 ! D261  D(96,82,85,79)        177.0801                                         !
 ! D262  D(96,82,85,83)        -62.8553                                         !
 ! D263  D(96,82,85,104)        54.2763                                         !
 ! D264  D(72,82,87,78)         83.7464                                         !
 ! D265  D(72,82,87,86)        -59.4643                                         !
 ! D266  D(72,82,87,108)      -172.0293                                         !
 ! D267  D(85,82,87,78)        -34.1157                                         !
 ! D268  D(85,82,87,86)       -177.3264                                         !
 ! D269  D(85,82,87,108)        70.1086                                         !
 ! D270  D(96,82,87,78)       -152.9201                                         !
 ! D271  D(96,82,87,86)         63.8692                                         !
 ! D272  D(96,82,87,108)       -48.6958                                         !
 ! D273  D(72,82,96,94)        -60.569                                          !
 ! D274  D(72,82,96,99)         58.3717                                         !
 ! D275  D(72,82,96,110)      -177.4081                                         !
 ! D276  D(85,82,96,94)         57.5864                                         !
 ! D277  D(85,82,96,99)        176.5271                                         !
 ! D278  D(85,82,96,110)       -59.2527                                         !
 ! D279  D(87,82,96,94)        176.8261                                         !
 ! D280  D(87,82,96,99)        -64.2332                                         !
 ! D281  D(87,82,96,110)        59.987                                          !
 ! D282  D(75,86,87,78)        -49.873                                          !
 ! D283  D(75,86,87,82)         92.7676                                         !
 ! D284  D(75,86,87,108)      -158.1403                                         !
 ! D285  D(89,86,87,78)       -171.3988                                         !
 ! D286  D(89,86,87,82)        -28.7582                                         !
 ! D287  D(89,86,87,108)        80.334                                          !
 ! D288  D(98,86,87,78)         67.3605                                         !
 ! D289  D(98,86,87,82)       -149.9989                                         !
 ! D290  D(98,86,87,108)       -40.9067                                         !
 ! D291  D(75,86,89,84)        -56.0209                                         !
 ! D292  D(75,86,89,92)         62.4643                                         !
 ! D293  D(75,86,89,106)      -179.493                                          !
 ! D294  D(87,86,89,84)         63.0385                                         !
 ! D295  D(87,86,89,92)       -178.4763                                         !
 ! D296  D(87,86,89,106)       -60.4336                                         !
 ! D297  D(98,86,89,84)       -174.3197                                         !
 ! D298  D(98,86,89,92)        -55.8345                                         !
 ! D299  D(98,86,89,106)        62.2082                                         !
 ! D300  D(75,86,98,97)         62.1405                                         !
 ! D301  D(75,86,98,100)       -56.6918                                         !
 ! D302  D(75,86,98,113)      -174.38                                           !
 ! D303  D(87,86,98,97)        -52.6999                                         !
 ! D304  D(87,86,98,100)      -171.5323                                         !
 ! D305  D(87,86,98,113)        70.7796                                         !
 ! D306  D(89,86,98,97)       -179.0612                                         !
 ! D307  D(89,86,98,100)        62.1064                                         !
 ! D308  D(89,86,98,113)       -55.5817                                         !
 ! D309  D(78,87,108,111)       40.166                                          !
 ! D310  D(78,87,108,115)      -75.4031                                         !
 ! D311  D(78,87,108,116)      166.5519                                         !
 ! D312  D(82,87,108,111)      -80.8469                                         !
 ! D313  D(82,87,108,115)      163.5839                                         !
 ! D314  D(82,87,108,116)       45.539                                          !
 ! D315  D(86,87,108,111)      164.209                                          !
 ! D316  D(86,87,108,115)       48.6398                                         !
 ! D317  D(86,87,108,116)      -69.4051                                         !
 ! D318  D(80,93,103,91)       -47.6718                                         !
 ! D319  D(80,93,103,107)       73.6477                                         !
 ! D320  D(80,93,103,109)     -166.8629                                         !
 ! D321  D(90,93,103,91)        72.5025                                         !
 ! D322  D(90,93,103,107)     -166.178                                          !
 ! D323  D(90,93,103,109)      -46.6886                                         !
 ! D324  D(105,93,103,91)     -170.4752                                         !
 ! D325  D(105,93,103,107)     -49.1557                                         !
 ! D326  D(105,93,103,109)      70.3337                                         !
 ! D327  D(81,101,102,78)        6.2829                                         !
 ! D328  D(81,101,102,111)    -177.254                                          !
 ! D329  D(112,101,102,78)    -176.5903                                         !
 ! D330  D(112,101,102,111)     -0.1271                                         !
 ! D331  D(81,101,112,114)      -3.6914                                         !
 ! D332  D(81,101,112,118)     175.9708                                         !
 ! D333  D(102,101,112,114)    179.5124                                         !
 ! D334  D(102,101,112,118)     -0.8255                                         !
 ! D335  D(78,102,111,108)      -1.8067                                         !
 ! D336  D(78,102,111,117)     177.3235                                         !
 ! D337  D(101,102,111,108)   -178.0851                                         !
 ! D338  D(101,102,111,117)      1.0451                                         !
 ! D339  D(87,108,111,102)     -28.3865                                         !
 ! D340  D(87,108,111,117)     152.5255                                         !
 ! D341  D(115,108,111,102)     85.275                                          !
 ! D342  D(115,108,111,117)    -93.813                                          !
 ! D343  D(116,108,111,102)   -156.688                                          !
 ! D344  D(116,108,111,117)     24.2239                                         !
 ! D345  D(102,111,117,118)     -0.9807                                         !
 ! D346  D(102,111,117,119)    179.3943                                         !
 ! D347  D(108,111,117,118)    178.0696                                         !
 ! D348  D(108,111,117,119)     -1.5555                                         !
 ! D349  D(101,112,118,117)      0.8516                                         !
 ! D350  D(101,112,118,120)   -179.5518                                         !
 ! D351  D(114,112,118,117)   -179.4898                                         !
 ! D352  D(114,112,118,120)      0.1067                                         !
 ! D353  D(111,117,118,112)      0.0291                                         !
 ! D354  D(111,117,118,120)   -179.5679                                         !
 ! D355  D(119,117,118,112)    179.6503                                         !
 ! D356  D(119,117,118,120)      0.0533                                         !
 --------------------------------------------------------------------------------
 Stoichiometry    C40H74N4O6P2Ru2(3)
 Framework group  C1[X(C40H74N4O6P2Ru2)]
 Deg. of freedom   378
 Full point group                 C1      NOp   1
 Largest Abelian subgroup         C1      NOp   1
 Largest concise Abelian subgroup C1      NOp   1
                         Standard orientation:                         
 ---------------------------------------------------------------------
 Center     Atomic      Atomic             Coordinates (Angstroms)
 Number     Number       Type             X           Y           Z
 ---------------------------------------------------------------------
      1          1           0       -1.036469    3.369855    3.086858
      2          6           0       -1.877382    2.671750    2.959780
      3          1           0       -2.494199    2.734438    3.869280
      4          1           0       -1.452239    1.659360    2.885732
      5          1           0       -0.507419   -0.711388   -1.975038
      6          8           0       -1.820187    1.311053   -0.745822
      7          1           0       -0.323822   -2.699163   -0.179143
      8          8           0       -0.705687    1.265913   -0.068040
      9          1           0       -0.939255   -0.267171    1.974309
     10          6           0       -2.636824    3.059835    1.710698
     11          1           0       -0.557412   -1.157730   -3.693578
     12          1           0       -3.074235    4.071222    1.821540
     13          6           0       -0.904006   -1.445402   -2.686815
     14          1           0       -1.203483   -2.512956    1.341128
     15          1           0       -0.448403   -2.416140   -2.447113
     16          1           0       -1.946516    3.096545    0.857966
     17          6           0       -1.068341   -3.176908    0.475827
     18          1           0       -0.644707   -4.130427    0.834703
     19          1           0       -3.610359    2.886670   -0.596543
     20         44           0       -3.009808    0.085818    0.505041
     21          1           0       -2.627767    0.693818   -2.506793
     22          7           0       -3.712659    2.112282    1.329991
     23          6           0       -4.399647    2.662874    0.139464
     24          6           0       -2.431735   -1.489763   -2.672113
     25          1           0       -2.598708    0.046296   -4.161536
     26          1           0       -1.389817   -4.276534   -2.004964
     27          6           0       -2.972832   -0.131562   -3.139168
     28          6           0       -2.397579   -3.458192   -0.232043
     29         15           0       -3.003966   -1.764286   -0.868301
     30          1           0       -4.920240    3.607831    0.369597
     31          6           0       -2.187525   -4.534003   -1.296201
     32          1           0       -4.144515    1.361188    3.227043
     33          1           0       -4.655379    3.834861    3.441926
     34          1           0       -1.882066   -5.464186   -0.788161
     35          6           0       -4.682614    1.890227    2.431007
     36          1           0       -2.655891   -2.202410   -4.683094
     37          6           0       -3.547615   -0.873285    1.964464
     38          6           0       -2.945895   -2.530874   -3.670840
     39          1           0       -3.664928   -3.291033    1.567261
     40          6           0       -3.402043   -4.010380    0.782797
     41          1           0       -2.526965   -3.530322   -3.522659
     42          1           0       -2.943104   -4.879562    1.282530
     43          6           0       -5.342342    1.669219   -0.479403
     44          7           0       -4.843099    0.426123   -0.546747
     45          6           0       -5.367760    3.124388    2.997718
     46          1           0       -4.072018   -0.118760   -3.190475
     47          1           0       -5.434029    1.183717    2.048702
     48          1           0       -3.106542   -4.755439   -1.858531
     49          1           0       -5.969855    3.663070    2.250450
     50          6           0       -4.870582   -1.930444   -1.058735
     51          1           0       -6.054427    2.806702    3.796507
     52          1           0       -4.043903   -2.608632   -3.666872
     53          6           0       -5.527403   -0.581079   -1.115597
     54          6           0       -6.597225    1.965794   -0.996437
     55          1           0       -4.324634   -4.365923    0.298086
     56          1           0       -6.995888    2.979088   -0.930385
     57          1           0       -5.197757   -2.415468   -0.124317
     58          1           0       -5.192573   -2.572482   -1.891423
     59          6           0       -6.782926   -0.341349   -1.674487
     60          6           0       -7.319712    0.942310   -1.611399
     61          1           0       -7.334001   -1.155891   -2.146654
     62          1           0       -8.304744    1.144724   -2.035712
     63          8           0       -3.877954   -1.415153    2.946735
     64          6           0        1.952810   -3.886765    2.673905
     65          1           0        0.590005    1.456773   -1.779196
     66          8           0       -0.271238   -0.286140    2.683691
     67          1           0        1.011792    3.362811   -0.253990
     68          8           0        1.586456   -0.940963   -0.354055
     69          1           0        0.515390    0.073131    2.227419
     70          6           0        1.995659   -2.437194    2.216593
     71          1           0        0.644599    1.537778   -3.561613
     72          6           0        1.129995    1.884917   -2.633923
     73          1           0        1.900240    3.083057    1.242209
     74          1           0        1.006323    2.976888   -2.590766
     75          6           0        1.874838    3.703423    0.335919
     76          1           0        1.712978    4.757020    0.620631
     77          1           0        2.733780   -2.804868   -0.128292
     78         44           0        3.055212    0.121135    0.690588
     79          1           0        2.211817   -0.627001   -2.158742
     80          7           0        3.286929   -1.955264    1.673911
     81          6           0        3.647083   -2.761522    0.486937
     82          6           0        2.600208    1.466048   -2.654179
     83          1           0        2.155485   -0.212114   -3.914976
     84          1           0        2.347593    4.452839   -2.276650
     85          6           0        2.683454   -0.035217   -2.961809
     86          6           0        3.195614    3.591509   -0.436025
     87         15           0        3.345746    1.750312   -0.912082
     88          1           0        3.954387   -3.783005    0.769832
     89          6           0        3.201606    4.581660   -1.600116
     90          1           0        5.247899   -1.512200    2.219342
     91          1           0        3.585564   -0.422990    3.892275
     92          1           0        3.137149    5.601471   -1.184393
     93          6           0        4.382444   -2.026885    2.663911
     94          1           0        2.860632    1.914439   -4.731261
     95          6           0        4.192260    0.958187    1.839509
     96          6           0        3.340292    2.197148   -3.778820
     97          1           0        4.450368    3.320295    1.358169
     98          6           0        4.350448    3.980336    0.489783
     99          1           0        3.302184    3.288941   -3.707651
    100          1           0        4.158438    4.997304    0.871001
    101          6           0        4.712729   -2.115236   -0.349616
    102          7           0        4.582382   -0.788021   -0.471059
    103          6           0        4.043391   -1.414381    4.008144
    104          1           0        3.723921   -0.364993   -3.105955
    105          1           0        4.679663   -3.085054    2.803716
[...]
  Beta virt. eigenvalues --    5.14632   5.15034   5.15143   5.15427   5.15675
  Beta virt. eigenvalues --    5.15795   5.16177   5.16448   5.17524   5.18348
  Beta virt. eigenvalues --    5.18738   5.18997   5.19112   5.19762   5.19905
  Beta virt. eigenvalues --    5.20099   5.21064   5.21551   5.21829   5.21991
  Beta virt. eigenvalues --    5.22107   5.22143   5.22439   5.22588   5.23111
  Beta virt. eigenvalues --    5.23201   5.23295   5.24005   5.24165   5.24421
  Beta virt. eigenvalues --    5.24824   5.24997   5.25519   5.25966   5.26037
  Beta virt. eigenvalues --    5.26128   5.26283   5.26452   5.26626   5.26913
  Beta virt. eigenvalues --    5.27295   5.27634   5.27845   5.27946   5.28485
  Beta virt. eigenvalues --    5.29012   5.29217   5.29329   5.29935   5.30044
  Beta virt. eigenvalues --    5.30358   5.30735   5.31160   5.31322   5.31364
  Beta virt. eigenvalues --    5.32148   5.32564   5.32802   5.33104   5.33717
  Beta virt. eigenvalues --    5.34081   5.34521   5.35104   5.35315   5.35632
  Beta virt. eigenvalues --    5.35987   5.36190   5.36423   5.36661   5.36765
  Beta virt. eigenvalues --    5.36968   5.37246   5.37562   5.37624   5.38039
  Beta virt. eigenvalues --    5.38213   5.38440   5.38477   5.38752   5.39189
  Beta virt. eigenvalues --    5.39423   5.39716   5.39917   5.40125   5.40271
  Beta virt. eigenvalues --    5.40396   5.40914   5.41132   5.41356   5.41667
  Beta virt. eigenvalues --    5.41714   5.41853   5.42259   5.42349   5.43090
  Beta virt. eigenvalues --    5.43161   5.43540   5.43698   5.44101   5.44468
  Beta virt. eigenvalues --    5.44603   5.44997   5.45311   5.45724   5.45840
  Beta virt. eigenvalues --    5.46117   5.46237   5.46581   5.46971   5.47171
  Beta virt. eigenvalues --    5.47709   5.48081   5.48643   5.49065   5.49214
  Beta virt. eigenvalues --    5.49714   5.49869   5.50288   5.50751   5.50756
  Beta virt. eigenvalues --    5.50841   5.51343   5.51565   5.52000   5.52439
  Beta virt. eigenvalues --    5.52637   5.52796   5.52991   5.53425   5.53886
  Beta virt. eigenvalues --    5.54530   5.54983   5.55240   5.55403   5.55568
  Beta virt. eigenvalues --    5.55817   5.56405   5.57099   5.57305   5.57749
  Beta virt. eigenvalues --    5.57956   5.58224   5.58621   5.59081   5.59356
  Beta virt. eigenvalues --    5.59757   5.59995   5.60371   5.60515   5.60888
  Beta virt. eigenvalues --    5.61109   5.61614   5.61799   5.62365   5.62907
  Beta virt. eigenvalues --    5.62951   5.64003   5.64307   5.64799   5.65838
  Beta virt. eigenvalues --    5.67241   5.68092   5.68661   5.69643   5.70092
  Beta virt. eigenvalues --    5.71173   5.71529   5.72640   5.72939   5.74514
  Beta virt. eigenvalues --    5.77585   5.78497   5.79721   5.82955   5.86741
  Beta virt. eigenvalues --    5.87554   5.88803   5.89373   5.89787   5.89895
  Beta virt. eigenvalues --    5.92778   5.93953   5.98300   5.99524   5.99897
  Beta virt. eigenvalues --    6.00169   6.00457   6.01210   6.01825   6.02121
  Beta virt. eigenvalues --    6.02263   6.02570   6.03061   6.03103   6.03692
  Beta virt. eigenvalues --    6.04329   6.04564   6.05108   6.05822   6.05994
  Beta virt. eigenvalues --    6.06383   6.06558   6.06840   6.07478   6.07546
  Beta virt. eigenvalues --    6.08241   6.09277   6.09707   6.10158   6.10778
  Beta virt. eigenvalues --    6.11020   6.11170   6.11596   6.11969   6.12994
  Beta virt. eigenvalues --    6.13623   6.14930   6.15176   6.15617   6.15710
  Beta virt. eigenvalues --    6.16876   6.17777   6.18512   6.18887   6.19459
  Beta virt. eigenvalues --    6.19950   6.20501   6.20793   6.23157   6.23317
  Beta virt. eigenvalues --    6.24062   6.24890   6.26924   6.27286   6.28140
  Beta virt. eigenvalues --    6.28851   6.29430   6.29709   6.31607   6.31630
  Beta virt. eigenvalues --    6.33934   6.34596   6.35112   6.35403   6.35640
  Beta virt. eigenvalues --    6.41381   6.42754   6.42928   6.43945   6.45218
  Beta virt. eigenvalues --    6.47970   6.50103   6.52425   6.55194   6.55766
  Beta virt. eigenvalues --    6.56695   6.56922   6.61376   6.62296   6.63437
  Beta virt. eigenvalues --    6.65516   6.68504   6.70033   6.70686   6.72518
  Beta virt. eigenvalues --    6.75560   6.79587   6.79675   6.82391   6.83525
  Beta virt. eigenvalues --    6.84639   6.87020   6.87448   6.89032   6.93553
  Beta virt. eigenvalues --    6.94406   6.95835   7.07578   7.08252   7.15854
  Beta virt. eigenvalues --    7.19788   7.21110   7.27129   7.41780   7.44473
  Beta virt. eigenvalues --    7.48834   7.55115   7.94134   8.46740   8.73197
  Beta virt. eigenvalues --    9.78795   9.79927  10.01797  10.04934  10.11385
  Beta virt. eigenvalues --   10.21097  10.37400  10.78379  10.87055  11.37534
  Beta virt. eigenvalues --   12.24473  12.28779  12.39862  12.44689  12.78537
  Beta virt. eigenvalues --   12.79156  12.90698  12.93807  12.95017  13.01848
  Beta virt. eigenvalues --   13.23243  13.24797  13.25613  13.27355  13.38925
  Beta virt. eigenvalues --   13.49176  13.53718  13.55399  13.57369  13.62890
  Beta virt. eigenvalues --   13.64163  13.69608  13.73387  13.74498  13.79973
  Beta virt. eigenvalues --   13.80544  13.86489  13.88761  13.92931  13.98187
  Beta virt. eigenvalues --   13.99640  14.05212  14.16465  14.23634  14.30706
  Beta virt. eigenvalues --   14.34995  15.06838  15.08729  35.49603  35.56731
  Beta virt. eigenvalues --   35.67046  35.69935  35.72278  35.78096  46.33504
  Beta virt. eigenvalues --   46.37442
          Condensed to atoms (all electrons):
          Atomic-Atomic Spin Densities.
 Mulliken charges and spin densities:
               1          2
     1  H    0.119164   0.000372
     2  C   -0.353960   0.000785
     3  H    0.115567   0.000446
     4  H    0.108491   0.001639
     5  H    0.096442  -0.002418
     6  O   -0.301916   0.473598
     7  H    0.116992  -0.000418
     8  O   -0.289412   0.568694
     9  H    0.282302   0.021721
    10  C   -0.134837  -0.002013
    11  H    0.111705   0.000239
    12  H    0.121305   0.000838
    13  C   -0.344941  -0.000761
    14  H    0.128311  -0.005299
    15  H    0.132810   0.000040
    16  H    0.154942   0.001193
    17  C   -0.342802   0.001904
    18  H    0.115287   0.001487
    19  H    0.169594  -0.000196
    20  Ru   0.737127   0.833484
    21  H    0.151583  -0.003126
    22  N   -0.230805  -0.002530
    23  C   -0.123506   0.011868
    24  C    0.010748  -0.003430
    25  H    0.110267   0.000168
    26  H    0.118326   0.000048
    27  C   -0.391014   0.007167
    28  C    0.001531  -0.001934
    29  P    0.038507  -0.016774
    30  H    0.129530  -0.000908
    31  C   -0.335539  -0.000410
    32  H    0.133386  -0.001176
    33  H    0.112567  -0.000019
    34  H    0.107805   0.000034
    35  C   -0.126620  -0.001461
    36  H    0.108372  -0.000350
    37  C   -0.237008   0.001023
    38  C   -0.338280  -0.000172
    39  H    0.141578  -0.000225
    40  C   -0.368609  -0.000067
    41  H    0.121156   0.000051
    42  H    0.108111  -0.000077
    43  C    0.123608   0.000456
    44  N   -0.187437   0.057476
    45  C   -0.327302   0.000001
    46  H    0.125412  -0.000067
    47  H    0.142669  -0.000048
    48  H    0.112715   0.000038
    49  H    0.111353   0.000044
    50  C   -0.219569  -0.000728
    51  H    0.118401   0.000083
    52  H    0.115693   0.000007
    53  C    0.031745   0.005698
    54  C   -0.159202   0.000949
    55  H    0.114615  -0.000048
    56  H    0.161932   0.001627
    57  H    0.162575  -0.000240
    58  H    0.142930  -0.000983
    59  C   -0.137035  -0.000009
    60  C   -0.139883   0.006225
    61  H    0.162008   0.001246
    62  H    0.162061  -0.000452
    63  O   -0.320802   0.016625
    64  C   -0.340090  -0.000016
    65  H    0.136696  -0.000703
    66  O   -0.565868   0.017037
    67  H    0.121651  -0.000380
    68  O   -0.760668   0.006433
    69  H    0.329449  -0.000481
    70  C   -0.102118   0.000211
    71  H    0.107803   0.000022
    72  C   -0.386623   0.001904
    73  H    0.138511   0.000181
    74  H    0.126706   0.000026
    75  C   -0.353567   0.000499
    76  H    0.111008   0.000089
    77  H    0.173222  -0.000001
    78  Ru   0.767680   0.000256
    79  H    0.159077  -0.000020
    80  N   -0.198448  -0.000010
    81  C   -0.115467   0.000159
    82  C    0.026558  -0.000325
    83  H    0.106043  -0.000011
    84  H    0.119956  -0.000027
    85  C   -0.423729   0.000000
    86  C    0.011607   0.000132
    87  P    0.107820   0.000606
    88  H    0.124727   0.000015
    89  C   -0.334136   0.000006
    90  H    0.145786   0.000003
    91  H    0.126585  -0.000085
    92  H    0.108092   0.000003
    93  C   -0.119728   0.000009
    94  H    0.107259   0.000001
    95  C   -0.181921   0.000108
    96  C   -0.337832   0.000067
    97  H    0.144948  -0.000012
    98  C   -0.374988   0.000032
    99  H    0.121545   0.000001
   100  H    0.109463  -0.000000
   101  C    0.093299   0.000001
   102  N   -0.138565   0.000062
   103  C   -0.342315  -0.000002
   104  H    0.120722  -0.000000
   105  H    0.117800  -0.000001
   106  H    0.112295   0.000005
   107  H    0.118498  -0.000013
   108  C   -0.238460   0.000001
   109  H    0.122532  -0.000003
   110  H    0.112497   0.000006
   111  C    0.032816  -0.000016
   112  C   -0.157551   0.000017
   113  H    0.115288   0.000037
   114  H    0.162124   0.000000
   115  H    0.165542  -0.000003
   116  H    0.140842   0.000001
   117  C   -0.126912   0.000008
   118  C   -0.137241  -0.000013
   119  H    0.162850  -0.000002
   120  H    0.162471   0.000001
   121  H    0.277020   0.003279
   122  O   -0.311312   0.000026
   123  H    0.121257   0.000012
   124  H    0.113710   0.000001
   125  H    0.112209   0.000000
   126  H    0.116929  -0.000649
   127  H    0.118201   0.000213
   128  H   -0.364298   0.000374
 Sum of Mulliken charges =  -0.00000   2.00000
 Mulliken charges and spin densities with hydrogens summed into heavy atoms:
               1          2
     2  C   -0.010738   0.003242
     6  O   -0.301916   0.473598
     8  O   -0.289412   0.568694
    10  C    0.141410   0.000018
    13  C   -0.003984  -0.002900
    17  C    0.017789  -0.002326
    20  Ru   0.737127   0.833484
    22  N   -0.230805  -0.002530
    23  C    0.175618   0.010764
    24  C    0.010748  -0.003430
    27  C   -0.003752   0.004141
    28  C    0.001531  -0.001934
    29  P    0.038507  -0.016774
    31  C    0.003306  -0.000289
    35  C    0.149434  -0.002685
    37  C   -0.237008   0.001023
    38  C    0.006941  -0.000464
    40  C   -0.004306  -0.000417
    43  C    0.123608   0.000456
    44  N   -0.187437   0.057476
    45  C    0.015019   0.000109
    50  C    0.085936  -0.001952
    53  C    0.031745   0.005698
    54  C    0.002729   0.002576
    59  C    0.024973   0.001238
    60  C    0.022178   0.005773
    63  O   -0.320802   0.016625
    64  C    0.007086  -0.000003
    66  O    0.045883   0.038276
    68  O   -0.483648   0.009711
    70  C    0.133012  -0.000224
    72  C   -0.015418   0.001249
    75  C    0.017603   0.000390
    78  Ru   0.403382   0.000630
    80  N   -0.198448  -0.000010
    81  C    0.182481   0.000173
    82  C    0.026558  -0.000325
    85  C   -0.037888  -0.000031
    86  C    0.011607   0.000132
    87  P    0.107820   0.000606
    89  C    0.006208  -0.000014
    93  C    0.143858   0.000011
    95  C   -0.181921   0.000108
    96  C    0.003469   0.000074
    98  C   -0.005289   0.000057
   101  C    0.093299   0.000001
   102  N   -0.138565   0.000062
   103  C    0.025300  -0.000103
   108  C    0.067924  -0.000002
   111  C    0.032816  -0.000016
   112  C    0.004573   0.000017
   117  C    0.035938   0.000006
   118  C    0.025231  -0.000012
   122  O   -0.311312   0.000026
 Electronic spatial extent (au):  <R**2>=          39480.3721
 Charge=             -0.0000 electrons
 Dipole moment (field-independent basis, Debye):
    X=             -3.6518    Y=             -1.1330    Z=            -12.1944  Tot=             12.7797
 Quadrupole moment (field-independent basis, Debye-Ang):
   XX=           -250.7038   YY=           -328.8454   ZZ=           -390.8181
   XY=            -31.6149   XZ=             -3.2852   YZ=              3.5761
 Traceless Quadrupole moment (field-independent basis, Debye-Ang):
   XX=             72.7519   YY=             -5.3896   ZZ=            -67.3623
   XY=            -31.6149   XZ=             -3.2852   YZ=              3.5761
 Octapole moment (field-independent basis, Debye-Ang**2):
  XXX=           -181.0465  YYY=              4.4334  ZZZ=            -19.3524  XYY=             -1.4108
  XXY=             -6.0588  XXZ=           -290.8257  XZZ=             16.7598  YZZ=              4.8107
  YYZ=             13.4179  XYZ=           -115.9132
 Hexadecapole moment (field-independent basis, Debye-Ang**3):
 XXXX=         -27997.5398 YYYY=         -11209.0522 ZZZZ=          -9130.8620 XXXY=          -1290.0845
 XXXZ=           -177.2126 YYYX=           -323.6320 YYYZ=             33.9824 ZZZX=             38.9570
 ZZZY=             32.9969 XXYY=          -6519.4732 XXZZ=          -6849.7311 YYZZ=          -3440.3600
 XXYZ=             87.8425 YYXZ=            -30.9491 ZZXY=           -225.2790
 N-N= 1.045810090965D+04 E-N=-2.815319748932D+04  KE= 2.970202676110D+03
 1\1\GINC-NODE278\SP\UPBE1PBE\GenECP\C40H74N4O6P2Ru2(3)\JS1212\23-Jul-2
 020\0\\# genecp pbe1pbe EmpiricalDispersion=GD3BJ scrf=(SMD,solvent=wa
 ter) geom=allcheck\\Title Card Required\\0,3\H,0,-1.0513488268,-3.3552
 581058,-3.096235404\C,0,-1.8915305381,-2.6573197917,-2.9635235898\H,0,
 -2.511492306,-2.716181311,-3.8711391962\H,0,-1.4657148576,-1.645399800
 8,-2.8869554006\H,0,-0.5032256627,0.7058239256,1.9798273216\O,0,-1.821
 046193,-1.3112373119,0.7471835003\H,0,-0.3249701515,2.7005758757,0.191
 144899\O,0,-0.7088611993,-1.2638788403,0.065759595\H,0,-0.9488038051,0
 .2773237136,-1.9697297742\C,0,-2.6468396502,-3.0500118101,-1.713376671
 5\H,0,-0.5471312933,1.1454204983,3.7002718866\H,0,-3.0850487575,-4.060
 7784103,-1.8266924655\C,0,-0.897060827,1.4371906075,2.6958447731\H,0,-
 1.2099232093,2.5207053438,-1.3268157428\H,0,-0.4418806954,2.4086810206
 ,2.4583989625\H,0,-1.9536238038,-3.0903545605,-0.8631716656\C,0,-1.071
 5352697,3.1811937141,-0.459379064\H,0,-0.6487398826,4.1359463243,-0.81
 59556373\H,0,-3.6123749503,-2.8855351581,0.5978582569\Ru,0,-3.01444677
 22,-0.0806120225,-0.4947564355\H,0,-2.6223182194,-0.700611863,2.513332
 0351\N,0,-3.7209677375,-2.1035316441,-1.3252520998\C,0,-4.4040927445,-
 2.6585275793,-0.1345468945\C,0,-2.4248126754,1.4822226247,2.6865657826
 \H,0,-2.5873092385,-0.0596171227,4.1704994105\H,0,-1.3840340478,4.2711
 787721,2.0268072041\C,0,-2.9648675567,0.1224120395,3.1501300989\C,0,-2
 .3982182253,3.4602242296,0.2541532814\P,0,-3.0031200178,1.7640709217,0
 .8858230187\H,0,-4.9258651397,-3.6023624155,-0.3666053499\C,0,-2.18406
 37399,4.5317548876,1.3218067298\H,0,-4.1590233916,-1.3448054904,-3.217
 8403192\H,0,-4.6716493189,-3.8174079499,-3.4406946008\H,0,-1.879965190
 8,5.463806511,0.8163836916\C,0,-4.6946052808,-1.8767566791,-2.42204683
 14\H,0,-2.6417663056,2.1870413575,4.701092181\C,0,-3.5568628035,0.8844
 417656,-1.9485394778\C,0,-2.9351077561,2.5196025382,3.691139982\H,0,-3
 .6718066602,3.3006553778,-1.5414298724\C,0,-3.4059316046,4.0168048447,
 -0.7550499208\H,0,-2.516273775,3.5194575174,3.5454532093\H,0,-2.948349
 4866,4.8877611507,-1.25293381\C,0,-5.344243653,-1.6669367293,0.4914587
 389\N,0,-4.8442557899,-0.424315917,0.5619760385\C,0,-5.3822055606,-3.1
 084029092,-2.9912509188\H,0,-4.0638754109,0.1098503747,3.2051629829\H,
 0,-5.4444090868,-1.1714542862,-2.0343874995\H,0,-3.1010525464,4.751345
 8451,1.8881571467\H,0,-5.981954962,-3.649778824,-2.2440441373\C,0,-4.8
 690024685,1.9302285618,1.0833211741\H,0,-6.0714796789,-2.7872997326,-3
 .7864208221\H,0,-4.0330910928,2.5978171985,3.6912497799\C,0,-5.5261847
 016,0.580914643,1.1371312502\C,0,-6.5974670588,-1.9650396989,1.0116296
 38\H,0,-4.3267050649,4.3708078602,-0.2657771154\H,0,-6.996775185,-2.97
 79054276,0.9429633373\H,0,-5.1991826376,2.4190573165,0.1519468734\H,0,
 -5.1878651075,2.5691147425,1.9196288097\C,0,-6.7798802909,0.3394925569
 ,1.6993834154\C,0,-7.3174136069,-0.9436924569,1.6330911287\H,0,-7.3289
 927979,1.1523917994,2.1766414913\H,0,-8.3010663512,-1.1473793523,2.059
 985993\O,0,-3.8903473963,1.4303031282,-2.9275314278\C,0,1.9423453478,3
 .8984793297,-2.6650136675\H,0,0.5926190115,-1.4619909959,1.7716902764\
 O,0,-0.2832188205,0.2988151803,-2.6813221794\H,0,1.0083744429,-3.36218
 22656,0.2375585358\O,0,1.5851663226,0.9409337871,0.352576822\H,0,0.504
 8216135,-0.0625644421,-2.2291718762\C,0,1.986162049,2.4471033626,-2.21
 35573276\H,0,0.6532989012,-1.550030294,3.5535761803\C,0,1.1353626707,-
 1.8937115948,2.6228659102\H,0,1.8917963806,-3.0769002213,-1.2605717583
 \H,0,1.0110893143,-2.9854551339,2.5758397264\C,0,1.8692478536,-3.70081
 77144,-0.356646659\H,0,1.7059735754,-4.753220636,-0.6449434477\H,0,2.7
 324832316,2.8052512918,0.1302067477\Ru,0,3.0498855108,-0.1176361979,-0
 .7012752679\H,0,2.2165898008,0.6196216682,2.1538559324\N,0,3.279087288
 9,1.9625223333,-1.6772142907\C,0,3.6436493608,2.7639587038,-0.48832228
 61\C,0,2.6058101641,-1.4755170409,2.6397187927\H,0,2.166116894,0.19784
 98655,3.9086274268\H,0,2.3506597331,-4.4606970007,2.2513151915\C,0,2.6
 907357302,0.0244925263,2.952963358\C,0,3.1927138498,-3.5924725898,0.41
 11891747\P,0,3.3452439466,-1.7532228708,0.8939668819\H,0,3.950404792,3
 .7864234236,-0.7682507358\C,0,3.2022909763,-4.587198688,1.5713499649\H
 ,0,5.2379882201,1.5208203238,-2.231116531\H,0,3.5694663847,0.438868769
 6,-3.9026006166\H,0,3.1359834941,-5.6053397272,1.151841933\C,0,4.37122
 61137,2.0375985787,-2.6706822049\H,0,2.8731785842,-1.9321816575,4.7141
 143804\C,0,4.1826334592,-0.9506176838,-1.8573792057\C,0,3.3494483925,-
 2.2113333435,3.7589260857\H,0,4.4414123555,-3.3147049544,-1.3862238477
 \C,0,4.3442004839,-3.978117659,-0.5201024211\H,0,3.3106420134,-3.30282
 24427,3.6835946818\H,0,4.1504602118,-4.9935003369,-0.9046556415\C,0,4.
 7118934663,2.1139586688,0.3420162977\N,0,4.5814127357,0.7863281073,0.4
 586855423\C,0,4.0273053796,1.4305240952,-4.0161410287\H,0,3.7318288334
 ,0.3532806196,3.0948308554\H,0,4.6684028682,3.0961891012,-2.8073437816
 \H,0,4.1328763429,-4.5365910568,2.1559871453\H,0,3.3357115997,2.063983
 0368,-4.5895413586\C,0,5.1737408004,-1.4269328206,1.2084567935\H,0,4.9
 467745805,1.3134573912,-4.6079013156\H,0,4.4029140723,-1.9022941902,3.
 8326596924\C,0,5.4210244978,0.0544263379,1.2123929003\C,0,5.730333443,
 2.7909125841,1.0057962277\H,0,5.3090279883,-4.0129470607,0.0096592814\
 H,0,5.8327505236,3.8713748382,0.8978256309\H,0,5.6937101931,-1.8555227
 873,0.3359879459\H,0,5.5826399755,-1.9072470381,2.1084118029\C,0,6.449
 9189545,0.6781828527,1.9171936494\C,0,6.6020785024,2.0584428054,1.8095
 666361\H,0,7.1243463485,0.0852908462,2.5360319922\H,0,7.4061784415,2.5
 632811045,2.3483906337\H,0,0.7771922352,0.4255892785,0.227856713\O,0,4
 .8802433919,-1.4524202327,-2.6511150278\H,0,0.9398664436,4.1025351533,
 -3.0700891088\H,0,2.6680200296,4.1264862788,-3.4619731785\H,0,2.108585
 9728,4.6081772767,-1.8396901475\H,0,1.265706793,2.2547170164,-1.410100
 7439\H,0,1.70276043,1.7837202919,-3.0366644349\H,0,1.8552861612,-0.776
 952941,-1.5576298628\\Version=ES64L-G16RevA.03\State=3-A\HF=-3109.8720
 459\S2=2.012599\S2-1=0.\S2A=2.000093\RMSD=2.117e-09\Dipole=-1.4200492,
 0.4274385,4.8042515\Quadrupole=54.1243585,-4.0475617,-50.0767968,23.48
 1349,2.1781317,2.7582553\PG=C01 [X(C40H74N4O6P2Ru2)]\\@


 THE FIRST MORNING OF CREATION WROTE WHAT THE LAST DAWN OF
 RECKONING SHALL READ. -- OMAR KHAYYAM
 Job cpu time:       6 days  7 hours 39 minutes 32.6 seconds.
 Elapsed time:       0 days  7 hours 35 minutes 50.0 seconds.
 File lengths (MBytes):  RWF=   7631 Int=      0 D2E=      0 Chk=    591 Scr=      1
 Normal termination of Gaussian 16 at Thu Jul 23 00:43:05 2020.
