 Entering Gaussian System, Link 0=g16
 Initial command:
 /cluster/chemistry/gaussian/g16/l1.exe "/scratch/js1212.756874/scratch/Gau-5079.inp" -scrdir="/scratch/js1212.756874/scratch/"
 Entering Link 1 = /cluster/chemistry/gaussian/g16/l1.exe PID=      5081.
  
 Copyright (c) 1988,1990,1992,1993,1995,1998,2003,2009,2016,
            Gaussian, Inc.  All Rights Reserved.
  
 This is part of the Gaussian(R) 16 program.  It is based on
 the Gaussian(R) 09 system (copyright 2009, Gaussian, Inc.),
 the Gaussian(R) 03 system (copyright 2003, Gaussian, Inc.),
 the Gaussian(R) 98 system (copyright 1998, Gaussian, Inc.),
 the Gaussian(R) 94 system (copyright 1995, Gaussian, Inc.),
 the Gaussian 92(TM) system (copyright 1992, Gaussian, Inc.),
 the Gaussian 90(TM) system (copyright 1990, Gaussian, Inc.),
 the Gaussian 88(TM) system (copyright 1988, Gaussian, Inc.),
 the Gaussian 86(TM) system (copyright 1986, Carnegie Mellon
 University), and the Gaussian 82(TM) system (copyright 1983,
 Carnegie Mellon University). Gaussian is a federally registered
 trademark of Gaussian, Inc.
  
 This software contains proprietary and confidential information,
 including trade secrets, belonging to Gaussian, Inc.
  
 This software is provided under written license and may be
 used, copied, transmitted, or stored only in accord with that
 written license.
  
 The following legend is applicable only to US Government
 contracts under FAR:
  
                    RESTRICTED RIGHTS LEGEND
  
 Use, reproduction and disclosure by the US Government is
 subject to restrictions as set forth in subparagraphs (a)
 and (c) of the Commercial Computer Software - Restricted
 Rights clause in FAR 52.227-19.
  
 Gaussian, Inc.
 340 Quinnipiac St., Bldg. 40, Wallingford CT 06492
  
  
 ---------------------------------------------------------------
 Warning -- This program may not be used in any manner that
 competes with the business of Gaussian, Inc. or will provide
 assistance to any competitor of Gaussian, Inc.  The licensee
 of this program is prohibited from giving any competitor of
 Gaussian, Inc. access to this program.  By using this program,
 the user acknowledges that Gaussian, Inc. is engaged in the
 business of creating and licensing software in the field of
 computational chemistry and represents and warrants to the
 licensee that it is not a competitor of Gaussian, Inc. and that
 it will not use this program in any manner prohibited above.
 ---------------------------------------------------------------
  

 Cite this work as:
 Gaussian 16, Revision A.03,
 M. J. Frisch, G. W. Trucks, H. B. Schlegel, G. E. Scuseria, 
 M. A. Robb, J. R. Cheeseman, G. Scalmani, V. Barone, 
 G. A. Petersson, H. Nakatsuji, X. Li, M. Caricato, A. V. Marenich, 
 J. Bloino, B. G. Janesko, R. Gomperts, B. Mennucci, H. P. Hratchian, 
 J. V. Ortiz, A. F. Izmaylov, J. L. Sonnenberg, D. Williams-Young, 
 F. Ding, F. Lipparini, F. Egidi, J. Goings, B. Peng, A. Petrone, 
 T. Henderson, D. Ranasinghe, V. G. Zakrzewski, J. Gao, N. Rega, 
 G. Zheng, W. Liang, M. Hada, M. Ehara, K. Toyota, R. Fukuda, 
 J. Hasegawa, M. Ishida, T. Nakajima, Y. Honda, O. Kitao, H. Nakai, 
 T. Vreven, K. Throssell, J. A. Montgomery, Jr., J. E. Peralta, 
 F. Ogliaro, M. J. Bearpark, J. J. Heyd, E. N. Brothers, K. N. Kudin, 
 V. N. Staroverov, T. A. Keith, R. Kobayashi, J. Normand, 
 K. Raghavachari, A. P. Rendell, J. C. Burant, S. S. Iyengar, 
 J. Tomasi, M. Cossi, J. M. Millam, M. Klene, C. Adamo, R. Cammi, 
 J. W. Ochterski, R. L. Martin, K. Morokuma, O. Farkas, 
 J. B. Foresman, and D. J. Fox, Gaussian, Inc., Wallingford CT, 2016.
 
 ******************************************
 Gaussian 16:  ES64L-G16RevA.03 25-Dec-2016
                16-Jul-2020 
 ******************************************
 %rwf=/scratch/js1212.756874/J-Trans-R2-R2-Down-T-GPF.rwf
 %nosave
 %nprocshared=20
 Will use up to   20 processors via shared memory.
 %mem=3000MB
 %oldchk=/data/js1212/200714_g16/J-Trans-R2-R2-Down-T-GPOF-Restart.chk
 %chk=/scratch/js1212.756874/J-Trans-R2-R2-Down-T-GPF.chk
 Copying data from "/data/js1212/200714_g16/J-Trans-R2-R2-Down-T-GPOF-Restart.chk" to current chk file "/scratch/js1212.756874/J-Trans-R2-R2-Down-T-GPF.chk"
 IOpt=  2 FromEx=T IUOpen= 4 IOptOp= 5 NList=   0 IFRang= 0 IUIn= 4 IUOut= 2.
 ----------------------------------------------------------------------
 # freq genecp pbe1pbe EmpiricalDispersion=GD3BJ Geom=AllCheck Guess=TC
 heck
 ----------------------------------------------------------------------
 1/10=4,29=7,30=1,38=1/1,3;
 2/12=2,40=1/2;
 3/5=7,11=2,14=-4,16=1,17=8,25=1,30=1,71=2,74=-13,116=-2,124=41,140=1/1,2,3;
 4/5=101/1;
 5/5=2,38=6,98=1/2;
 8/6=4,10=90,11=11/1;
 11/6=1,8=1,9=11,15=111,16=1/1,2,10;
 10/6=1/2;
 6/7=2,8=2,9=2,10=2,28=1/1;
 7/8=1,10=1,25=1/1,2,3,16;
 1/10=4,30=1/3;
 99//99;
 Structure from the checkpoint file:  "/scratch/js1212.756874/J-Trans-R2-R2-Down-T-GPF.chk"
 -------------------
 Title Card Required
 -------------------
 Charge =  0 Multiplicity = 3
 Redundant internal coordinates found in file.  (old form).
 H,0,-1.0513488268,-3.3552581058,-3.096235404
 C,0,-1.8915305381,-2.6573197917,-2.9635235898
 H,0,-2.511492306,-2.716181311,-3.8711391962
 H,0,-1.4657148576,-1.6453998008,-2.8869554006
 H,0,-0.5032256627,0.7058239256,1.9798273216
 O,0,-1.821046193,-1.3112373119,0.7471835003
 H,0,-0.3249701515,2.7005758757,0.191144899
 O,0,-0.7088611993,-1.2638788403,0.065759595
 H,0,-0.9488038051,0.2773237136,-1.9697297742
 C,0,-2.6468396502,-3.0500118101,-1.7133766715
 H,0,-0.5471312933,1.1454204983,3.7002718866
 H,0,-3.0850487575,-4.0607784103,-1.8266924655
 C,0,-0.897060827,1.4371906075,2.6958447731
 H,0,-1.2099232093,2.5207053438,-1.3268157428
 H,0,-0.4418806954,2.4086810206,2.4583989625
 H,0,-1.9536238038,-3.0903545605,-0.8631716656
 C,0,-1.0715352697,3.1811937141,-0.459379064
 H,0,-0.6487398826,4.1359463243,-0.8159556373
 H,0,-3.6123749503,-2.8855351581,0.5978582569
 Ru,0,-3.0144467722,-0.0806120225,-0.4947564355
 H,0,-2.6223182194,-0.700611863,2.5133320351
 N,0,-3.7209677375,-2.1035316441,-1.3252520998
 C,0,-4.4040927445,-2.6585275793,-0.1345468945
 C,0,-2.4248126754,1.4822226247,2.6865657826
 H,0,-2.5873092385,-0.0596171227,4.1704994105
 H,0,-1.3840340478,4.2711787721,2.0268072041
 C,0,-2.9648675567,0.1224120395,3.1501300989
 C,0,-2.3982182253,3.4602242296,0.2541532814
 P,0,-3.0031200178,1.7640709217,0.8858230187
 H,0,-4.9258651397,-3.6023624155,-0.3666053499
 C,0,-2.1840637399,4.5317548876,1.3218067298
 H,0,-4.1590233916,-1.3448054904,-3.2178403192
 H,0,-4.6716493189,-3.8174079499,-3.4406946008
 H,0,-1.8799651908,5.463806511,0.8163836916
 C,0,-4.6946052808,-1.8767566791,-2.4220468314
 H,0,-2.6417663056,2.1870413575,4.701092181
 C,0,-3.5568628035,0.8844417656,-1.9485394778
 C,0,-2.9351077561,2.5196025382,3.691139982
 H,0,-3.6718066602,3.3006553778,-1.5414298724
 C,0,-3.4059316046,4.0168048447,-0.7550499208
 H,0,-2.516273775,3.5194575174,3.5454532093
 H,0,-2.9483494866,4.8877611507,-1.25293381
 C,0,-5.344243653,-1.6669367293,0.4914587389
 N,0,-4.8442557899,-0.424315917,0.5619760385
 C,0,-5.3822055606,-3.1084029092,-2.9912509188
 H,0,-4.0638754109,0.1098503747,3.2051629829
 H,0,-5.4444090868,-1.1714542862,-2.0343874995
 H,0,-3.1010525464,4.7513458451,1.8881571467
 H,0,-5.981954962,-3.649778824,-2.2440441373
 C,0,-4.8690024685,1.9302285618,1.0833211741
 H,0,-6.0714796789,-2.7872997326,-3.7864208221
 H,0,-4.0330910928,2.5978171985,3.6912497799
 C,0,-5.5261847016,0.580914643,1.1371312502
 C,0,-6.5974670588,-1.9650396989,1.011629638
 H,0,-4.3267050649,4.3708078602,-0.2657771154
 H,0,-6.996775185,-2.9779054276,0.9429633373
 H,0,-5.1991826376,2.4190573165,0.1519468734
 H,0,-5.1878651075,2.5691147425,1.9196288097
 C,0,-6.7798802909,0.3394925569,1.6993834154
 C,0,-7.3174136069,-0.9436924569,1.6330911287
 H,0,-7.3289927979,1.1523917994,2.1766414913
 H,0,-8.3010663512,-1.1473793523,2.059985993
 O,0,-3.8903473963,1.4303031282,-2.9275314278
 C,0,1.9423453478,3.8984793297,-2.6650136675
 H,0,0.5926190115,-1.4619909959,1.7716902764
 O,0,-0.2832188205,0.2988151803,-2.6813221794
 H,0,1.0083744429,-3.3621822656,0.2375585358
 O,0,1.5851663226,0.9409337871,0.352576822
 H,0,0.5048216135,-0.0625644421,-2.2291718762
 C,0,1.986162049,2.4471033626,-2.2135573276
 H,0,0.6532989012,-1.550030294,3.5535761803
 C,0,1.1353626707,-1.8937115948,2.6228659102
 H,0,1.8917963806,-3.0769002213,-1.2605717583
 H,0,1.0110893143,-2.9854551339,2.5758397264
 C,0,1.8692478536,-3.7008177144,-0.356646659
 H,0,1.7059735754,-4.753220636,-0.6449434477
 H,0,2.7324832316,2.8052512918,0.1302067477
 Ru,0,3.0498855108,-0.1176361979,-0.7012752679
 H,0,2.2165898008,0.6196216682,2.1538559324
 N,0,3.2790872889,1.9625223333,-1.6772142907
 C,0,3.6436493608,2.7639587038,-0.4883222861
 C,0,2.6058101641,-1.4755170409,2.6397187927
 H,0,2.166116894,0.1978498655,3.9086274268
 H,0,2.3506597331,-4.4606970007,2.2513151915
 C,0,2.6907357302,0.0244925263,2.952963358
 C,0,3.1927138498,-3.5924725898,0.4111891747
 P,0,3.3452439466,-1.7532228708,0.8939668819
 H,0,3.950404792,3.7864234236,-0.7682507358
 C,0,3.2022909763,-4.587198688,1.5713499649
 H,0,5.2379882201,1.5208203238,-2.231116531
 H,0,3.5694663847,0.4388687696,-3.9026006166
 H,0,3.1359834941,-5.6053397272,1.151841933
 C,0,4.3712261137,2.0375985787,-2.6706822049
 H,0,2.8731785842,-1.9321816575,4.7141143804
 C,0,4.1826334592,-0.9506176838,-1.8573792057
 C,0,3.3494483925,-2.2113333435,3.7589260857
 H,0,4.4414123555,-3.3147049544,-1.3862238477
 C,0,4.3442004839,-3.978117659,-0.5201024211
 H,0,3.3106420134,-3.3028224427,3.6835946818
 H,0,4.1504602118,-4.9935003369,-0.9046556415
 C,0,4.7118934663,2.1139586688,0.3420162977
 N,0,4.5814127357,0.7863281073,0.4586855423
 C,0,4.0273053796,1.4305240952,-4.0161410287
 H,0,3.7318288334,0.3532806196,3.0948308554
 H,0,4.6684028682,3.0961891012,-2.8073437816
 H,0,4.1328763429,-4.5365910568,2.1559871453
 H,0,3.3357115997,2.0639830368,-4.5895413586
 C,0,5.1737408004,-1.4269328206,1.2084567935
 H,0,4.9467745805,1.3134573912,-4.6079013156
 H,0,4.4029140723,-1.9022941902,3.8326596924
 C,0,5.4210244978,0.0544263379,1.2123929003
 C,0,5.730333443,2.7909125841,1.0057962277
 H,0,5.3090279883,-4.0129470607,0.0096592814
 H,0,5.8327505236,3.8713748382,0.8978256309
 H,0,5.6937101931,-1.8555227873,0.3359879459
 H,0,5.5826399755,-1.9072470381,2.1084118029
 C,0,6.4499189545,0.6781828527,1.9171936494
 C,0,6.6020785024,2.0584428054,1.8095666361
 H,0,7.1243463485,0.0852908462,2.5360319922
 H,0,7.4061784415,2.5632811045,2.3483906337
 H,0,0.7771922352,0.4255892785,0.227856713
 O,0,4.8802433919,-1.4524202327,-2.6511150278
 H,0,0.9398664436,4.1025351533,-3.0700891088
 H,0,2.6680200296,4.1264862788,-3.4619731785
 H,0,2.1085859728,4.6081772767,-1.8396901475
 H,0,1.265706793,2.2547170164,-1.4101007439
 H,0,1.70276043,1.7837202919,-3.0366644349
 H,0,1.8552861612,-0.776952941,-1.5576298628
 Recover connectivity data from disk.

 GradGradGradGradGradGradGradGradGradGradGradGradGradGradGradGradGradGrad
 Berny optimization.
 Initialization pass.
                           ----------------------------
                           !    Initial Parameters    !
                           ! (Angstroms and Degrees)  !
 --------------------------                            --------------------------
 ! Name  Definition              Value          Derivative Info.                !
 --------------------------------------------------------------------------------
 ! R1    R(1,2)                  1.1003         calculate D2E/DX2 analytically  !
 ! R2    R(2,3)                  1.1007         calculate D2E/DX2 analytically  !
 ! R3    R(2,4)                  1.1005         calculate D2E/DX2 analytically  !
 ! R4    R(2,10)                 1.5125         calculate D2E/DX2 analytically  !
 ! R5    R(5,13)                 1.0967         calculate D2E/DX2 analytically  !
 ! R6    R(6,8)                  1.3052         calculate D2E/DX2 analytically  !
 ! R7    R(6,20)                 2.1169         calculate D2E/DX2 analytically  !
 ! R8    R(7,17)                 1.1007         calculate D2E/DX2 analytically  !
 ! R9    R(8,69)                 2.8606         calculate D2E/DX2 analytically  !
 ! R10   R(9,66)                 0.9746         calculate D2E/DX2 analytically  !
 ! R11   R(10,12)                1.1075         calculate D2E/DX2 analytically  !
 ! R12   R(10,16)                1.0977         calculate D2E/DX2 analytically  !
 ! R13   R(10,22)                1.4833         calculate D2E/DX2 analytically  !
 ! R14   R(11,13)                1.1029         calculate D2E/DX2 analytically  !
 ! R15   R(13,15)                1.0988         calculate D2E/DX2 analytically  !
 ! R16   R(13,24)                1.5284         calculate D2E/DX2 analytically  !
 ! R17   R(14,17)                1.099          calculate D2E/DX2 analytically  !
 ! R18   R(17,18)                1.1034         calculate D2E/DX2 analytically  !
 ! R19   R(17,28)                1.532          calculate D2E/DX2 analytically  !
 ! R20   R(19,23)                1.1022         calculate D2E/DX2 analytically  !
 ! R21   R(20,29)                2.3041         calculate D2E/DX2 analytically  !
 ! R22   R(20,37)                1.8273         calculate D2E/DX2 analytically  !
 ! R23   R(20,44)                2.1408         calculate D2E/DX2 analytically  !
 ! R24   R(21,27)                1.0955         calculate D2E/DX2 analytically  !
 ! R25   R(22,23)                1.4807         calculate D2E/DX2 analytically  !
 ! R26   R(22,35)                1.484          calculate D2E/DX2 analytically  !
 ! R27   R(23,30)                1.1031         calculate D2E/DX2 analytically  !
 ! R28   R(23,43)                1.503          calculate D2E/DX2 analytically  !
 ! R29   R(24,27)                1.5348         calculate D2E/DX2 analytically  !
 ! R30   R(24,29)                1.9122         calculate D2E/DX2 analytically  !
 ! R31   R(24,38)                1.5316         calculate D2E/DX2 analytically  !
 ! R32   R(25,27)                1.1031         calculate D2E/DX2 analytically  !
 ! R33   R(26,31)                1.0977         calculate D2E/DX2 analytically  !
 ! R34   R(27,46)                1.1005         calculate D2E/DX2 analytically  !
 ! R35   R(28,29)                1.9084         calculate D2E/DX2 analytically  !
 ! R36   R(28,31)                1.5277         calculate D2E/DX2 analytically  !
 ! R37   R(28,40)                1.5309         calculate D2E/DX2 analytically  !
 ! R38   R(29,50)                1.8836         calculate D2E/DX2 analytically  !
 ! R39   R(31,34)                1.103          calculate D2E/DX2 analytically  !
 ! R40   R(31,48)                1.0999         calculate D2E/DX2 analytically  !
 ! R41   R(32,35)                1.0969         calculate D2E/DX2 analytically  !
 ! R42   R(33,45)                1.0998         calculate D2E/DX2 analytically  !
 ! R43   R(35,45)                1.5211         calculate D2E/DX2 analytically  !
 ! R44   R(35,47)                1.1            calculate D2E/DX2 analytically  !
 ! R45   R(36,38)                1.103          calculate D2E/DX2 analytically  !
 ! R46   R(37,63)                1.1694         calculate D2E/DX2 analytically  !
 ! R47   R(38,41)                1.0938         calculate D2E/DX2 analytically  !
 ! R48   R(38,52)                1.1008         calculate D2E/DX2 analytically  !
 ! R49   R(39,40)                1.0963         calculate D2E/DX2 analytically  !
 ! R50   R(40,42)                1.1026         calculate D2E/DX2 analytically  !
 ! R51   R(40,55)                1.1011         calculate D2E/DX2 analytically  !
 ! R52   R(43,44)                1.3413         calculate D2E/DX2 analytically  !
 ! R53   R(43,54)                1.3892         calculate D2E/DX2 analytically  !
 ! R54   R(44,53)                1.344          calculate D2E/DX2 analytically  !
 ! R55   R(45,49)                1.1005         calculate D2E/DX2 analytically  !
 ! R56   R(45,51)                1.1002         calculate D2E/DX2 analytically  !
 ! R57   R(50,53)                1.5018         calculate D2E/DX2 analytically  !
 ! R58   R(50,57)                1.1025         calculate D2E/DX2 analytically  !
 ! R59   R(50,58)                1.0997         calculate D2E/DX2 analytically  !
 ! R60   R(53,59)                1.3951         calculate D2E/DX2 analytically  !
 ! R61   R(54,56)                1.0909         calculate D2E/DX2 analytically  !
 ! R62   R(54,60)                1.3956         calculate D2E/DX2 analytically  !
 ! R63   R(59,60)                1.3928         calculate D2E/DX2 analytically  !
 ! R64   R(59,61)                1.0909         calculate D2E/DX2 analytically  !
 ! R65   R(60,62)                1.0915         calculate D2E/DX2 analytically  !
 ! R66   R(64,70)                1.5206         calculate D2E/DX2 analytically  !
 ! R67   R(64,123)               1.1003         calculate D2E/DX2 analytically  !
 ! R68   R(64,124)               1.1017         calculate D2E/DX2 analytically  !
 ! R69   R(64,125)               1.1011         calculate D2E/DX2 analytically  !
 ! R70   R(65,72)                1.0979         calculate D2E/DX2 analytically  !
 ! R71   R(66,69)                0.9778         calculate D2E/DX2 analytically  !
 ! R72   R(67,75)                1.0995         calculate D2E/DX2 analytically  !
 ! R73   R(68,78)                2.092          calculate D2E/DX2 analytically  !
 ! R74   R(68,121)               0.9664         calculate D2E/DX2 analytically  !
 ! R75   R(69,128)               1.6689         calculate D2E/DX2 analytically  !
 ! R76   R(70,80)                1.4813         calculate D2E/DX2 analytically  !
 ! R77   R(70,126)               1.0962         calculate D2E/DX2 analytically  !
 ! R78   R(70,127)               1.0945         calculate D2E/DX2 analytically  !
 ! R79   R(71,72)                1.1031         calculate D2E/DX2 analytically  !
 ! R80   R(72,74)                1.0998         calculate D2E/DX2 analytically  !
 ! R81   R(72,82)                1.5289         calculate D2E/DX2 analytically  !
 ! R82   R(73,75)                1.0986         calculate D2E/DX2 analytically  !
 ! R83   R(75,76)                1.1033         calculate D2E/DX2 analytically  !
 ! R84   R(75,86)                1.5339         calculate D2E/DX2 analytically  !
 ! R85   R(77,81)                1.102          calculate D2E/DX2 analytically  !
 ! R86   R(78,87)                2.3037         calculate D2E/DX2 analytically  !
 ! R87   R(78,95)                1.8203         calculate D2E/DX2 analytically  !
 ! R88   R(78,102)               2.1233         calculate D2E/DX2 analytically  !
 ! R89   R(78,128)               1.6109         calculate D2E/DX2 analytically  !
 ! R90   R(79,85)                1.1034         calculate D2E/DX2 analytically  !
 ! R91   R(80,81)                1.4794         calculate D2E/DX2 analytically  !
 ! R92   R(80,93)                1.4783         calculate D2E/DX2 analytically  !
 ! R93   R(81,88)                1.1036         calculate D2E/DX2 analytically  !
 ! R94   R(81,101)               1.501          calculate D2E/DX2 analytically  !
 ! R95   R(82,85)                1.5347         calculate D2E/DX2 analytically  !
 ! R96   R(82,87)                1.9161         calculate D2E/DX2 analytically  !
 ! R97   R(82,96)                1.532          calculate D2E/DX2 analytically  !
 ! R98   R(83,85)                1.1039         calculate D2E/DX2 analytically  !
 ! R99   R(84,89)                1.0971         calculate D2E/DX2 analytically  !
 ! R100  R(85,104)               1.101          calculate D2E/DX2 analytically  !
 ! R101  R(86,87)                1.9077         calculate D2E/DX2 analytically  !
 ! R102  R(86,89)                1.5282         calculate D2E/DX2 analytically  !
 ! R103  R(86,98)                1.5303         calculate D2E/DX2 analytically  !
 ! R104  R(87,108)               1.8838         calculate D2E/DX2 analytically  !
 ! R105  R(89,92)                1.1032         calculate D2E/DX2 analytically  !
 ! R106  R(89,106)               1.1002         calculate D2E/DX2 analytically  !
 ! R107  R(90,93)                1.1007         calculate D2E/DX2 analytically  !
 ! R108  R(91,103)               1.0981         calculate D2E/DX2 analytically  !
 ! R109  R(93,103)               1.5156         calculate D2E/DX2 analytically  !
 ! R110  R(93,105)               1.108          calculate D2E/DX2 analytically  !
 ! R111  R(94,96)                1.1032         calculate D2E/DX2 analytically  !
 ! R112  R(95,122)               1.1698         calculate D2E/DX2 analytically  !
 ! R113  R(96,99)                1.0948         calculate D2E/DX2 analytically  !
 ! R114  R(96,110)               1.1003         calculate D2E/DX2 analytically  !
 ! R115  R(97,98)                1.0953         calculate D2E/DX2 analytically  !
 ! R116  R(98,100)               1.1029         calculate D2E/DX2 analytically  !
 ! R117  R(98,113)               1.1013         calculate D2E/DX2 analytically  !
 ! R118  R(101,102)              1.3391         calculate D2E/DX2 analytically  !
 ! R119  R(101,112)              1.3914         calculate D2E/DX2 analytically  !
 ! R120  R(102,111)              1.3449         calculate D2E/DX2 analytically  !
 ! R121  R(103,107)              1.0993         calculate D2E/DX2 analytically  !
 ! R122  R(103,109)              1.0997         calculate D2E/DX2 analytically  !
 ! R123  R(108,111)              1.5019         calculate D2E/DX2 analytically  !
 ! R124  R(108,115)              1.1024         calculate D2E/DX2 analytically  !
 ! R125  R(108,116)              1.099          calculate D2E/DX2 analytically  !
 ! R126  R(111,117)              1.3944         calculate D2E/DX2 analytically  !
 ! R127  R(112,114)              1.0907         calculate D2E/DX2 analytically  !
 ! R128  R(112,118)              1.3937         calculate D2E/DX2 analytically  !
 ! R129  R(117,118)              1.3928         calculate D2E/DX2 analytically  !
 ! R130  R(117,119)              1.0906         calculate D2E/DX2 analytically  !
 ! R131  R(118,120)              1.0917         calculate D2E/DX2 analytically  !
 ! A1    A(1,2,3)              107.2601         calculate D2E/DX2 analytically  !
 ! A2    A(1,2,4)              107.2289         calculate D2E/DX2 analytically  !
 ! A3    A(1,2,10)             108.4415         calculate D2E/DX2 analytically  !
 ! A4    A(3,2,4)              108.9331         calculate D2E/DX2 analytically  !
 ! A5    A(3,2,10)             112.7305         calculate D2E/DX2 analytically  !
 ! A6    A(4,2,10)             111.9902         calculate D2E/DX2 analytically  !
 ! A7    A(8,6,20)              98.8006         calculate D2E/DX2 analytically  !
 ! A8    A(6,8,69)             142.7143         calculate D2E/DX2 analytically  !
 ! A9    A(2,10,12)            110.4866         calculate D2E/DX2 analytically  !
 ! A10   A(2,10,16)            109.5335         calculate D2E/DX2 analytically  !
 ! A11   A(2,10,22)            114.3453         calculate D2E/DX2 analytically  !
 ! A12   A(12,10,16)           107.1921         calculate D2E/DX2 analytically  !
 ! A13   A(12,10,22)           108.8206         calculate D2E/DX2 analytically  !
 ! A14   A(16,10,22)           106.1459         calculate D2E/DX2 analytically  !
 ! A15   A(5,13,11)            107.7119         calculate D2E/DX2 analytically  !
 ! A16   A(5,13,15)            107.444          calculate D2E/DX2 analytically  !
 ! A17   A(5,13,24)            112.0022         calculate D2E/DX2 analytically  !
 ! A18   A(11,13,15)           107.4129         calculate D2E/DX2 analytically  !
 ! A19   A(11,13,24)           109.2962         calculate D2E/DX2 analytically  !
 ! A20   A(15,13,24)           112.7495         calculate D2E/DX2 analytically  !
 ! A21   A(7,17,14)            106.8259         calculate D2E/DX2 analytically  !
 ! A22   A(7,17,18)            107.9945         calculate D2E/DX2 analytically  !
 ! A23   A(7,17,28)            113.0557         calculate D2E/DX2 analytically  !
 ! A24   A(14,17,18)           108.2525         calculate D2E/DX2 analytically  !
 ! A25   A(14,17,28)           111.5937         calculate D2E/DX2 analytically  !
 ! A26   A(18,17,28)           108.9498         calculate D2E/DX2 analytically  !
 ! A27   A(6,20,29)             96.38           calculate D2E/DX2 analytically  !
 ! A28   A(6,20,37)            160.2441         calculate D2E/DX2 analytically  !
 ! A29   A(6,20,44)             95.6776         calculate D2E/DX2 analytically  !
 ! A30   A(29,20,37)            93.1722         calculate D2E/DX2 analytically  !
 ! A31   A(29,20,44)            80.6174         calculate D2E/DX2 analytically  !
 ! A32   A(37,20,44)           102.9317         calculate D2E/DX2 analytically  !
 ! A33   A(10,22,23)           107.7782         calculate D2E/DX2 analytically  !
 ! A34   A(10,22,35)           112.2849         calculate D2E/DX2 analytically  !
 ! A35   A(23,22,35)           110.4208         calculate D2E/DX2 analytically  !
 ! A36   A(19,23,22)           106.2702         calculate D2E/DX2 analytically  !
 ! A37   A(19,23,30)           107.6576         calculate D2E/DX2 analytically  !
 ! A38   A(19,23,43)           107.965          calculate D2E/DX2 analytically  !
 ! A39   A(22,23,30)           111.6999         calculate D2E/DX2 analytically  !
 ! A40   A(22,23,43)           112.1005         calculate D2E/DX2 analytically  !
 ! A41   A(30,23,43)           110.8683         calculate D2E/DX2 analytically  !
 ! A42   A(13,24,27)           108.8914         calculate D2E/DX2 analytically  !
 ! A43   A(13,24,29)           108.201          calculate D2E/DX2 analytically  !
 ! A44   A(13,24,38)           110.4265         calculate D2E/DX2 analytically  !
 ! A45   A(27,24,29)           107.9749         calculate D2E/DX2 analytically  !
 ! A46   A(27,24,38)           106.5442         calculate D2E/DX2 analytically  !
 ! A47   A(29,24,38)           114.6501         calculate D2E/DX2 analytically  !
 ! A48   A(21,27,24)           112.3341         calculate D2E/DX2 analytically  !
 ! A49   A(21,27,25)           107.8592         calculate D2E/DX2 analytically  !
 ! A50   A(21,27,46)           109.4361         calculate D2E/DX2 analytically  !
 ! A51   A(24,27,25)           107.767          calculate D2E/DX2 analytically  !
 ! A52   A(24,27,46)           112.1248         calculate D2E/DX2 analytically  !
 ! A53   A(25,27,46)           107.0782         calculate D2E/DX2 analytically  !
 ! A54   A(17,28,29)           105.4724         calculate D2E/DX2 analytically  !
 ! A55   A(17,28,31)           109.3808         calculate D2E/DX2 analytically  !
 ! A56   A(17,28,40)           109.2205         calculate D2E/DX2 analytically  !
 ! A57   A(29,28,31)           115.8814         calculate D2E/DX2 analytically  !
 ! A58   A(29,28,40)           109.4318         calculate D2E/DX2 analytically  !
 ! A59   A(31,28,40)           107.3354         calculate D2E/DX2 analytically  !
 ! A60   A(20,29,24)           116.5983         calculate D2E/DX2 analytically  !
 ! A61   A(20,29,28)           120.9844         calculate D2E/DX2 analytically  !
 ! A62   A(20,29,50)            97.3873         calculate D2E/DX2 analytically  !
 ! A63   A(24,29,28)           110.2946         calculate D2E/DX2 analytically  !
 ! A64   A(24,29,50)           102.3475         calculate D2E/DX2 analytically  !
 ! A65   A(28,29,50)           105.6814         calculate D2E/DX2 analytically  !
 ! A66   A(26,31,28)           112.6129         calculate D2E/DX2 analytically  !
 ! A67   A(26,31,34)           107.0942         calculate D2E/DX2 analytically  !
 ! A68   A(26,31,48)           108.9232         calculate D2E/DX2 analytically  !
 ! A69   A(28,31,34)           108.1253         calculate D2E/DX2 analytically  !
 ! A70   A(28,31,48)           112.5197         calculate D2E/DX2 analytically  !
 ! A71   A(34,31,48)           107.2824         calculate D2E/DX2 analytically  !
 ! A72   A(22,35,32)           106.8556         calculate D2E/DX2 analytically  !
 ! A73   A(22,35,45)           116.7055         calculate D2E/DX2 analytically  !
 ! A74   A(22,35,47)           106.543          calculate D2E/DX2 analytically  !
 ! A75   A(32,35,45)           109.9939         calculate D2E/DX2 analytically  !
 ! A76   A(32,35,47)           106.1152         calculate D2E/DX2 analytically  !
 ! A77   A(45,35,47)           110.0554         calculate D2E/DX2 analytically  !
 ! A78   A(24,38,36)           107.9233         calculate D2E/DX2 analytically  !
 ! A79   A(24,38,41)           113.842          calculate D2E/DX2 analytically  !
 ! A80   A(24,38,52)           112.3667         calculate D2E/DX2 analytically  !
 ! A81   A(36,38,41)           107.2014         calculate D2E/DX2 analytically  !
 ! A82   A(36,38,52)           106.6547         calculate D2E/DX2 analytically  !
 ! A83   A(41,38,52)           108.4825         calculate D2E/DX2 analytically  !
 ! A84   A(28,40,39)           113.265          calculate D2E/DX2 analytically  !
 ! A85   A(28,40,42)           108.1594         calculate D2E/DX2 analytically  !
 ! A86   A(28,40,55)           111.9862         calculate D2E/DX2 analytically  !
 ! A87   A(39,40,42)           107.0212         calculate D2E/DX2 analytically  !
 ! A88   A(39,40,55)           109.0214         calculate D2E/DX2 analytically  !
 ! A89   A(42,40,55)           107.0798         calculate D2E/DX2 analytically  !
 ! A90   A(23,43,44)           113.574          calculate D2E/DX2 analytically  !
 ! A91   A(23,43,54)           125.3558         calculate D2E/DX2 analytically  !
 ! A92   A(44,43,54)           121.0225         calculate D2E/DX2 analytically  !
 ! A93   A(20,44,43)           116.1934         calculate D2E/DX2 analytically  !
 ! A94   A(20,44,53)           121.6576         calculate D2E/DX2 analytically  !
 ! A95   A(43,44,53)           121.7546         calculate D2E/DX2 analytically  !
 ! A96   A(33,45,35)           112.5108         calculate D2E/DX2 analytically  !
 ! A97   A(33,45,49)           108.2056         calculate D2E/DX2 analytically  !
 ! A98   A(33,45,51)           107.3105         calculate D2E/DX2 analytically  !
 ! A99   A(35,45,49)           112.992          calculate D2E/DX2 analytically  !
 ! A100  A(35,45,51)           108.5017         calculate D2E/DX2 analytically  !
 ! A101  A(49,45,51)           107.0296         calculate D2E/DX2 analytically  !
 ! A102  A(29,50,53)           110.9756         calculate D2E/DX2 analytically  !
 ! A103  A(29,50,57)           104.312          calculate D2E/DX2 analytically  !
 ! A104  A(29,50,58)           114.722          calculate D2E/DX2 analytically  !
 ! A105  A(53,50,57)           107.3127         calculate D2E/DX2 analytically  !
 ! A106  A(53,50,58)           111.5833         calculate D2E/DX2 analytically  !
 ! A107  A(57,50,58)           107.34           calculate D2E/DX2 analytically  !
 ! A108  A(44,53,50)           115.7619         calculate D2E/DX2 analytically  !
 ! A109  A(44,53,59)           119.9351         calculate D2E/DX2 analytically  !
 ! A110  A(50,53,59)           124.2759         calculate D2E/DX2 analytically  !
 ! A111  A(43,54,56)           120.3883         calculate D2E/DX2 analytically  !
 ! A112  A(43,54,60)           118.363          calculate D2E/DX2 analytically  !
 ! A113  A(56,54,60)           121.2444         calculate D2E/DX2 analytically  !
 ! A114  A(53,59,60)           119.1491         calculate D2E/DX2 analytically  !
 ! A115  A(53,59,61)           119.981          calculate D2E/DX2 analytically  !
 ! A116  A(60,59,61)           120.8683         calculate D2E/DX2 analytically  !
 ! A117  A(54,60,59)           119.7581         calculate D2E/DX2 analytically  !
 ! A118  A(54,60,62)           120.166          calculate D2E/DX2 analytically  !
 ! A119  A(59,60,62)           120.0747         calculate D2E/DX2 analytically  !
 ! A120  A(70,64,123)          108.2138         calculate D2E/DX2 analytically  !
 ! A121  A(70,64,124)          113.1618         calculate D2E/DX2 analytically  !
 ! A122  A(70,64,125)          112.8488         calculate D2E/DX2 analytically  !
 ! A123  A(123,64,124)         107.1831         calculate D2E/DX2 analytically  !
 ! A124  A(123,64,125)         107.0951         calculate D2E/DX2 analytically  !
 ! A125  A(124,64,125)         108.0213         calculate D2E/DX2 analytically  !
 ! A126  A(9,66,69)            101.8076         calculate D2E/DX2 analytically  !
 ! A127  A(78,68,121)          104.5082         calculate D2E/DX2 analytically  !
 ! A128  A(8,69,66)            100.6175         calculate D2E/DX2 analytically  !
 ! A129  A(8,69,128)            80.8358         calculate D2E/DX2 analytically  !
 ! A130  A(64,70,80)           116.4169         calculate D2E/DX2 analytically  !
 ! A131  A(64,70,126)          111.4808         calculate D2E/DX2 analytically  !
 ! A132  A(64,70,127)          110.3517         calculate D2E/DX2 analytically  !
 ! A133  A(80,70,126)          104.5288         calculate D2E/DX2 analytically  !
 ! A134  A(80,70,127)          107.4597         calculate D2E/DX2 analytically  !
 ! A135  A(126,70,127)         105.9419         calculate D2E/DX2 analytically  !
 ! A136  A(65,72,71)           108.3956         calculate D2E/DX2 analytically  !
 ! A137  A(65,72,74)           107.5372         calculate D2E/DX2 analytically  !
 ! A138  A(65,72,82)           112.1132         calculate D2E/DX2 analytically  !
 ! A139  A(71,72,74)           107.2167         calculate D2E/DX2 analytically  !
 ! A140  A(71,72,82)           109.0144         calculate D2E/DX2 analytically  !
 ! A141  A(74,72,82)           112.376          calculate D2E/DX2 analytically  !
 ! A142  A(67,75,73)           106.6087         calculate D2E/DX2 analytically  !
 ! A143  A(67,75,76)           108.6102         calculate D2E/DX2 analytically  !
 ! A144  A(67,75,86)           112.5367         calculate D2E/DX2 analytically  !
 ! A145  A(73,75,76)           109.2542         calculate D2E/DX2 analytically  !
 ! A146  A(73,75,86)           110.7357         calculate D2E/DX2 analytically  !
 ! A147  A(76,75,86)           109.0173         calculate D2E/DX2 analytically  !
 ! A148  A(68,78,87)            95.75           calculate D2E/DX2 analytically  !
 ! A149  A(68,78,102)           90.8245         calculate D2E/DX2 analytically  !
 ! A150  A(68,78,128)           87.4601         calculate D2E/DX2 analytically  !
 ! A151  A(87,78,95)            92.0128         calculate D2E/DX2 analytically  !
 ! A152  A(87,78,102)           80.2988         calculate D2E/DX2 analytically  !
 ! A153  A(87,78,128)           99.9392         calculate D2E/DX2 analytically  !
 ! A154  A(95,78,102)           95.3324         calculate D2E/DX2 analytically  !
 ! A155  A(95,78,128)           86.3623         calculate D2E/DX2 analytically  !
 ! A156  A(70,80,81)           109.199          calculate D2E/DX2 analytically  !
 ! A157  A(70,80,93)           112.6374         calculate D2E/DX2 analytically  !
 ! A158  A(81,80,93)           109.2989         calculate D2E/DX2 analytically  !
 ! A159  A(77,81,80)           105.5211         calculate D2E/DX2 analytically  !
 ! A160  A(77,81,88)           109.7227         calculate D2E/DX2 analytically  !
 ! A161  A(77,81,101)          107.1071         calculate D2E/DX2 analytically  !
 ! A162  A(80,81,88)           111.5036         calculate D2E/DX2 analytically  !
 ! A163  A(80,81,101)          112.6644         calculate D2E/DX2 analytically  !
 ! A164  A(88,81,101)          110.1026         calculate D2E/DX2 analytically  !
 ! A165  A(72,82,85)           108.8336         calculate D2E/DX2 analytically  !
 ! A166  A(72,82,87)           108.752          calculate D2E/DX2 analytically  !
 ! A167  A(72,82,96)           110.0923         calculate D2E/DX2 analytically  !
 ! A168  A(85,82,87)           107.8338         calculate D2E/DX2 analytically  !
 ! A169  A(85,82,96)           107.0654         calculate D2E/DX2 analytically  !
 ! A170  A(87,82,96)           114.1211         calculate D2E/DX2 analytically  !
 ! A171  A(79,85,82)           110.8274         calculate D2E/DX2 analytically  !
 ! A172  A(79,85,83)           109.7578         calculate D2E/DX2 analytically  !
 ! A173  A(79,85,104)          109.7908         calculate D2E/DX2 analytically  !
 ! A174  A(82,85,83)           107.6915         calculate D2E/DX2 analytically  !
 ! A175  A(82,85,104)          111.7473         calculate D2E/DX2 analytically  !
 ! A176  A(83,85,104)          106.9149         calculate D2E/DX2 analytically  !
 ! A177  A(75,86,87)           105.2938         calculate D2E/DX2 analytically  !
 ! A178  A(75,86,89)           109.8428         calculate D2E/DX2 analytically  !
 ! A179  A(75,86,98)           109.0736         calculate D2E/DX2 analytically  !
 ! A180  A(87,86,89)           115.7809         calculate D2E/DX2 analytically  !
 ! A181  A(87,86,98)           109.6825         calculate D2E/DX2 analytically  !
 ! A182  A(89,86,98)           107.0519         calculate D2E/DX2 analytically  !
 ! A183  A(78,87,82)           118.5886         calculate D2E/DX2 analytically  !
 ! A184  A(78,87,86)           119.935          calculate D2E/DX2 analytically  !
 ! A185  A(78,87,108)           96.7232         calculate D2E/DX2 analytically  !
 ! A186  A(82,87,86)           109.8433         calculate D2E/DX2 analytically  !
 ! A187  A(82,87,108)          101.383          calculate D2E/DX2 analytically  !
 ! A188  A(86,87,108)          106.6696         calculate D2E/DX2 analytically  !
 ! A189  A(84,89,86)           112.9911         calculate D2E/DX2 analytically  !
 ! A190  A(84,89,92)           107.1843         calculate D2E/DX2 analytically  !
 ! A191  A(84,89,106)          108.7805         calculate D2E/DX2 analytically  !
 ! A192  A(86,89,92)           108.1594         calculate D2E/DX2 analytically  !
 ! A193  A(86,89,106)          112.258          calculate D2E/DX2 analytically  !
 ! A194  A(92,89,106)          107.1802         calculate D2E/DX2 analytically  !
 ! A195  A(80,93,90)           106.8304         calculate D2E/DX2 analytically  !
 ! A196  A(80,93,103)          114.117          calculate D2E/DX2 analytically  !
 ! A197  A(80,93,105)          109.2424         calculate D2E/DX2 analytically  !
 ! A198  A(90,93,103)          110.1909         calculate D2E/DX2 analytically  !
 ! A199  A(90,93,105)          106.6556         calculate D2E/DX2 analytically  !
 ! A200  A(103,93,105)         109.5155         calculate D2E/DX2 analytically  !
 ! A201  A(82,96,94)           107.5438         calculate D2E/DX2 analytically  !
 ! A202  A(82,96,99)           114.2915         calculate D2E/DX2 analytically  !
 ! A203  A(82,96,110)          112.2584         calculate D2E/DX2 analytically  !
 ! A204  A(94,96,99)           107.2501         calculate D2E/DX2 analytically  !
 ! A205  A(94,96,110)          106.5128         calculate D2E/DX2 analytically  !
 ! A206  A(99,96,110)          108.5762         calculate D2E/DX2 analytically  !
 ! A207  A(86,98,97)           113.2883         calculate D2E/DX2 analytically  !
 ! A208  A(86,98,100)          108.1803         calculate D2E/DX2 analytically  !
 ! A209  A(86,98,113)          111.9903         calculate D2E/DX2 analytically  !
 ! A210  A(97,98,100)          107.3069         calculate D2E/DX2 analytically  !
 ! A211  A(97,98,113)          108.7712         calculate D2E/DX2 analytically  !
 ! A212  A(100,98,113)         107.0085         calculate D2E/DX2 analytically  !
 ! A213  A(81,101,102)         114.09           calculate D2E/DX2 analytically  !
 ! A214  A(81,101,112)         125.0374         calculate D2E/DX2 analytically  !
 ! A215  A(102,101,112)        120.8036         calculate D2E/DX2 analytically  !
 ! A216  A(78,102,101)         116.4091         calculate D2E/DX2 analytically  !
 ! A217  A(78,102,111)         121.6539         calculate D2E/DX2 analytically  !
 ! A218  A(101,102,111)        121.8394         calculate D2E/DX2 analytically  !
 ! A219  A(91,103,93)          111.3788         calculate D2E/DX2 analytically  !
 ! A220  A(91,103,107)         108.1806         calculate D2E/DX2 analytically  !
 ! A221  A(91,103,109)         107.9451         calculate D2E/DX2 analytically  !
 ! A222  A(93,103,107)         112.0249         calculate D2E/DX2 analytically  !
 ! A223  A(93,103,109)         109.306          calculate D2E/DX2 analytically  !
 ! A224  A(107,103,109)        107.86           calculate D2E/DX2 analytically  !
 ! A225  A(87,108,111)         109.3353         calculate D2E/DX2 analytically  !
 ! A226  A(87,108,115)         104.9728         calculate D2E/DX2 analytically  !
 ! A227  A(87,108,116)         114.97           calculate D2E/DX2 analytically  !
 ! A228  A(111,108,115)        107.932          calculate D2E/DX2 analytically  !
 ! A229  A(111,108,116)        111.572          calculate D2E/DX2 analytically  !
 ! A230  A(115,108,116)        107.6188         calculate D2E/DX2 analytically  !
 ! A231  A(102,111,108)        115.6278         calculate D2E/DX2 analytically  !
 ! A232  A(102,111,117)        120.0312         calculate D2E/DX2 analytically  !
 ! A233  A(108,111,117)        124.3348         calculate D2E/DX2 analytically  !
 ! A234  A(101,112,114)        120.2299         calculate D2E/DX2 analytically  !
 ! A235  A(101,112,118)        118.505          calculate D2E/DX2 analytically  !
 ! A236  A(114,112,118)        121.2642         calculate D2E/DX2 analytically  !
 ! A237  A(111,117,118)        119.0026         calculate D2E/DX2 analytically  !
 ! A238  A(111,117,119)        119.9953         calculate D2E/DX2 analytically  !
 ! A239  A(118,117,119)        121.0011         calculate D2E/DX2 analytically  !
 ! A240  A(112,118,117)        119.805          calculate D2E/DX2 analytically  !
 ! A241  A(112,118,120)        120.1534         calculate D2E/DX2 analytically  !
 ! A242  A(117,118,120)        120.0404         calculate D2E/DX2 analytically  !
 ! A243  A(69,128,78)          129.7017         calculate D2E/DX2 analytically  !
 ! A244  L(20,37,63,2,-1)      175.7777         calculate D2E/DX2 analytically  !
 ! A245  L(66,69,128,8,-1)     181.4533         calculate D2E/DX2 analytically  !
 ! A246  L(68,78,95,87,-1)     187.7627         calculate D2E/DX2 analytically  !
 ! A247  L(102,78,128,68,-1)   178.2846         calculate D2E/DX2 analytically  !
 ! A248  L(78,95,122,1,-1)     178.7965         calculate D2E/DX2 analytically  !
 ! A249  L(20,37,63,2,-2)      179.1342         calculate D2E/DX2 analytically  !
 ! A250  L(66,69,128,8,-2)     175.3489         calculate D2E/DX2 analytically  !
 ! A251  L(68,78,95,87,-2)     175.078          calculate D2E/DX2 analytically  !
 ! A252  L(102,78,128,68,-2)   179.9274         calculate D2E/DX2 analytically  !
 ! A253  L(78,95,122,1,-2)     176.8153         calculate D2E/DX2 analytically  !
 ! D1    D(1,2,10,12)          -63.26           calculate D2E/DX2 analytically  !
 ! D2    D(1,2,10,16)           54.6025         calculate D2E/DX2 analytically  !
 ! D3    D(1,2,10,22)          173.5751         calculate D2E/DX2 analytically  !
 ! D4    D(3,2,10,12)           55.3474         calculate D2E/DX2 analytically  !
 ! D5    D(3,2,10,16)          173.2099         calculate D2E/DX2 analytically  !
 ! D6    D(3,2,10,22)          -67.8175         calculate D2E/DX2 analytically  !
 ! D7    D(4,2,10,12)          178.616          calculate D2E/DX2 analytically  !
 ! D8    D(4,2,10,16)          -63.5215         calculate D2E/DX2 analytically  !
 ! D9    D(4,2,10,22)           55.4511         calculate D2E/DX2 analytically  !
 ! D10   D(20,6,8,69)            3.7797         calculate D2E/DX2 analytically  !
 ! D11   D(8,6,20,29)         -105.5076         calculate D2E/DX2 analytically  !
 ! D12   D(8,6,20,37)           12.921          calculate D2E/DX2 analytically  !
 ! D13   D(8,6,20,44)          173.3358         calculate D2E/DX2 analytically  !
 ! D14   D(6,8,69,66)          -13.6798         calculate D2E/DX2 analytically  !
 ! D15   D(6,8,69,128)         170.9713         calculate D2E/DX2 analytically  !
 ! D16   D(2,10,22,23)         177.1854         calculate D2E/DX2 analytically  !
 ! D17   D(2,10,22,35)          55.3558         calculate D2E/DX2 analytically  !
 ! D18   D(12,10,22,23)         53.1253         calculate D2E/DX2 analytically  !
 ! D19   D(12,10,22,35)        -68.7043         calculate D2E/DX2 analytically  !
 ! D20   D(16,10,22,23)        -61.9472         calculate D2E/DX2 analytically  !
 ! D21   D(16,10,22,35)        176.2231         calculate D2E/DX2 analytically  !
 ! D22   D(5,13,24,27)          63.7057         calculate D2E/DX2 analytically  !
 ! D23   D(5,13,24,29)         -53.4151         calculate D2E/DX2 analytically  !
 ! D24   D(5,13,24,38)        -179.6399         calculate D2E/DX2 analytically  !
 ! D25   D(11,13,24,27)        -55.5779         calculate D2E/DX2 analytically  !
 ! D26   D(11,13,24,29)       -172.6986         calculate D2E/DX2 analytically  !
 ! D27   D(11,13,24,38)         61.0766         calculate D2E/DX2 analytically  !
 ! D28   D(15,13,24,27)       -174.9598         calculate D2E/DX2 analytically  !
 ! D29   D(15,13,24,29)         67.9194         calculate D2E/DX2 analytically  !
 ! D30   D(15,13,24,38)        -58.3054         calculate D2E/DX2 analytically  !
 ! D31   D(7,17,28,29)         -57.7498         calculate D2E/DX2 analytically  !
 ! D32   D(7,17,28,31)          67.5255         calculate D2E/DX2 analytically  !
 ! D33   D(7,17,28,40)        -175.2709         calculate D2E/DX2 analytically  !
 ! D34   D(14,17,28,29)         62.7011         calculate D2E/DX2 analytically  !
 ! D35   D(14,17,28,31)       -172.0236         calculate D2E/DX2 analytically  !
 ! D36   D(14,17,28,40)        -54.82           calculate D2E/DX2 analytically  !
 ! D37   D(18,17,28,29)       -177.8238         calculate D2E/DX2 analytically  !
 ! D38   D(18,17,28,31)        -52.5485         calculate D2E/DX2 analytically  !
 ! D39   D(18,17,28,40)         64.655          calculate D2E/DX2 analytically  !
 ! D40   D(6,20,29,24)         -14.98           calculate D2E/DX2 analytically  !
 ! D41   D(6,20,29,28)         123.8834         calculate D2E/DX2 analytically  !
 ! D42   D(6,20,29,50)        -122.8027         calculate D2E/DX2 analytically  !
 ! D43   D(37,20,29,24)       -177.66           calculate D2E/DX2 analytically  !
 ! D44   D(37,20,29,28)        -38.7966         calculate D2E/DX2 analytically  !
 ! D45   D(37,20,29,50)         74.5173         calculate D2E/DX2 analytically  !
 ! D46   D(44,20,29,24)         79.7477         calculate D2E/DX2 analytically  !
 ! D47   D(44,20,29,28)       -141.3889         calculate D2E/DX2 analytically  !
 ! D48   D(44,20,29,50)        -28.075          calculate D2E/DX2 analytically  !
 ! D49   D(6,20,44,43)         -67.5312         calculate D2E/DX2 analytically  !
 ! D50   D(6,20,44,53)         119.5601         calculate D2E/DX2 analytically  !
 ! D51   D(29,20,44,43)       -163.0836         calculate D2E/DX2 analytically  !
 ! D52   D(29,20,44,53)         24.0076         calculate D2E/DX2 analytically  !
 ! D53   D(37,20,44,43)        105.7929         calculate D2E/DX2 analytically  !
 ! D54   D(37,20,44,53)        -67.1159         calculate D2E/DX2 analytically  !
 ! D55   D(10,22,23,19)         51.9618         calculate D2E/DX2 analytically  !
 ! D56   D(10,22,23,30)        -65.1821         calculate D2E/DX2 analytically  !
 ! D57   D(10,22,23,43)        169.6912         calculate D2E/DX2 analytically  !
 ! D58   D(35,22,23,19)        174.9396         calculate D2E/DX2 analytically  !
 ! D59   D(35,22,23,30)         57.7958         calculate D2E/DX2 analytically  !
 ! D60   D(35,22,23,43)        -67.3309         calculate D2E/DX2 analytically  !
 ! D61   D(10,22,35,32)        -67.1465         calculate D2E/DX2 analytically  !
 ! D62   D(10,22,35,45)         56.3817         calculate D2E/DX2 analytically  !
 ! D63   D(10,22,35,47)        179.7404         calculate D2E/DX2 analytically  !
 ! D64   D(23,22,35,32)        172.5427         calculate D2E/DX2 analytically  !
 ! D65   D(23,22,35,45)        -63.929          calculate D2E/DX2 analytically  !
 ! D66   D(23,22,35,47)         59.4297         calculate D2E/DX2 analytically  !
 ! D67   D(19,23,43,44)         74.3464         calculate D2E/DX2 analytically  !
 ! D68   D(19,23,43,54)       -103.151          calculate D2E/DX2 analytically  !
 ! D69   D(22,23,43,44)        -42.3683         calculate D2E/DX2 analytically  !
 ! D70   D(22,23,43,54)        140.1343         calculate D2E/DX2 analytically  !
 ! D71   D(30,23,43,44)       -167.9516         calculate D2E/DX2 analytically  !
 ! D72   D(30,23,43,54)         14.551          calculate D2E/DX2 analytically  !
 ! D73   D(13,24,27,21)        -58.7373         calculate D2E/DX2 analytically  !
 ! D74   D(13,24,27,25)         59.9349         calculate D2E/DX2 analytically  !
 ! D75   D(13,24,27,46)        177.5269         calculate D2E/DX2 analytically  !
 ! D76   D(29,24,27,21)         58.5272         calculate D2E/DX2 analytically  !
 ! D77   D(29,24,27,25)        177.1994         calculate D2E/DX2 analytically  !
 ! D78   D(29,24,27,46)        -65.2086         calculate D2E/DX2 analytically  !
 ! D79   D(38,24,27,21)       -177.8455         calculate D2E/DX2 analytically  !
 ! D80   D(38,24,27,25)        -59.1733         calculate D2E/DX2 analytically  !
 ! D81   D(38,24,27,46)         58.4187         calculate D2E/DX2 analytically  !
 ! D82   D(13,24,29,20)         79.4938         calculate D2E/DX2 analytically  !
 ! D83   D(13,24,29,28)        -63.5421         calculate D2E/DX2 analytically  !
 ! D84   D(13,24,29,50)       -175.6254         calculate D2E/DX2 analytically  !
 ! D85   D(27,24,29,20)        -38.2159         calculate D2E/DX2 analytically  !
 ! D86   D(27,24,29,28)        178.7482         calculate D2E/DX2 analytically  !
 ! D87   D(27,24,29,50)         66.6649         calculate D2E/DX2 analytically  !
 ! D88   D(38,24,29,20)       -156.788          calculate D2E/DX2 analytically  !
 ! D89   D(38,24,29,28)         60.1761         calculate D2E/DX2 analytically  !
 ! D90   D(38,24,29,50)        -51.9072         calculate D2E/DX2 analytically  !
 ! D91   D(13,24,38,36)        -64.2286         calculate D2E/DX2 analytically  !
 ! D92   D(13,24,38,41)         54.6367         calculate D2E/DX2 analytically  !
 ! D93   D(13,24,38,52)        178.4604         calculate D2E/DX2 analytically  !
 ! D94   D(27,24,38,36)         53.874          calculate D2E/DX2 analytically  !
 ! D95   D(27,24,38,41)        172.7393         calculate D2E/DX2 analytically  !
 ! D96   D(27,24,38,52)        -63.437          calculate D2E/DX2 analytically  !
 ! D97   D(29,24,38,36)        173.2489         calculate D2E/DX2 analytically  !
 ! D98   D(29,24,38,41)        -67.8858         calculate D2E/DX2 analytically  !
 ! D99   D(29,24,38,52)         55.9378         calculate D2E/DX2 analytically  !
 ! D100  D(17,28,29,20)        -47.5224         calculate D2E/DX2 analytically  !
 ! D101  D(17,28,29,24)         93.6362         calculate D2E/DX2 analytically  !
 ! D102  D(17,28,29,50)       -156.4488         calculate D2E/DX2 analytically  !
 ! D103  D(31,28,29,20)       -168.6542         calculate D2E/DX2 analytically  !
 ! D104  D(31,28,29,24)        -27.4956         calculate D2E/DX2 analytically  !
 ! D105  D(31,28,29,50)         82.4195         calculate D2E/DX2 analytically  !
 ! D106  D(40,28,29,20)         69.8561         calculate D2E/DX2 analytically  !
 ! D107  D(40,28,29,24)       -148.9853         calculate D2E/DX2 analytically  !
 ! D108  D(40,28,29,50)        -39.0703         calculate D2E/DX2 analytically  !
 ! D109  D(17,28,31,26)        -54.7295         calculate D2E/DX2 analytically  !
 ! D110  D(17,28,31,34)         63.3953         calculate D2E/DX2 analytically  !
 ! D111  D(17,28,31,48)       -178.3029         calculate D2E/DX2 analytically  !
 ! D112  D(29,28,31,26)         64.2829         calculate D2E/DX2 analytically  !
 ! D113  D(29,28,31,34)       -177.5923         calculate D2E/DX2 analytically  !
 ! D114  D(29,28,31,48)        -59.2904         calculate D2E/DX2 analytically  !
 ! D115  D(40,28,31,26)       -173.1143         calculate D2E/DX2 analytically  !
 ! D116  D(40,28,31,34)        -54.9895         calculate D2E/DX2 analytically  !
 ! D117  D(40,28,31,48)         63.3123         calculate D2E/DX2 analytically  !
 ! D118  D(17,28,40,39)         64.5288         calculate D2E/DX2 analytically  !
 ! D119  D(17,28,40,42)        -53.919          calculate D2E/DX2 analytically  !
 ! D120  D(17,28,40,55)       -171.679          calculate D2E/DX2 analytically  !
 ! D121  D(29,28,40,39)        -50.4687         calculate D2E/DX2 analytically  !
 ! D122  D(29,28,40,42)       -168.9164         calculate D2E/DX2 analytically  !
 ! D123  D(29,28,40,55)         73.3235         calculate D2E/DX2 analytically  !
 ! D124  D(31,28,40,39)       -176.9827         calculate D2E/DX2 analytically  !
 ! D125  D(31,28,40,42)         64.5695         calculate D2E/DX2 analytically  !
 ! D126  D(31,28,40,55)        -53.1905         calculate D2E/DX2 analytically  !
 ! D127  D(20,29,50,53)         36.3272         calculate D2E/DX2 analytically  !
 ! D128  D(20,29,50,57)        -78.9324         calculate D2E/DX2 analytically  !
 ! D129  D(20,29,50,58)        163.9328         calculate D2E/DX2 analytically  !
 ! D130  D(24,29,50,53)        -83.0497         calculate D2E/DX2 analytically  !
 ! D131  D(24,29,50,57)        161.6907         calculate D2E/DX2 analytically  !
 ! D132  D(24,29,50,58)         44.556          calculate D2E/DX2 analytically  !
 ! D133  D(28,29,50,53)        161.4674         calculate D2E/DX2 analytically  !
 ! D134  D(28,29,50,57)         46.2078         calculate D2E/DX2 analytically  !
 ! D135  D(28,29,50,58)        -70.9269         calculate D2E/DX2 analytically  !
 ! D136  D(22,35,45,33)        -61.6077         calculate D2E/DX2 analytically  !
 ! D137  D(22,35,45,49)         61.2962         calculate D2E/DX2 analytically  !
 ! D138  D(22,35,45,51)        179.8161         calculate D2E/DX2 analytically  !
 ! D139  D(32,35,45,33)         60.2927         calculate D2E/DX2 analytically  !
 ! D140  D(32,35,45,49)       -176.8034         calculate D2E/DX2 analytically  !
 ! D141  D(32,35,45,51)        -58.2835         calculate D2E/DX2 analytically  !
 ! D142  D(47,35,45,33)        176.8612         calculate D2E/DX2 analytically  !
 ! D143  D(47,35,45,49)        -60.2349         calculate D2E/DX2 analytically  !
 ! D144  D(47,35,45,51)         58.285          calculate D2E/DX2 analytically  !
 ! D145  D(23,43,44,20)          9.6235         calculate D2E/DX2 analytically  !
 ! D146  D(23,43,44,53)       -177.4752         calculate D2E/DX2 analytically  !
 ! D147  D(54,43,44,20)       -172.7582         calculate D2E/DX2 analytically  !
 ! D148  D(54,43,44,53)          0.1432         calculate D2E/DX2 analytically  !
 ! D149  D(23,43,54,56)         -3.0679         calculate D2E/DX2 analytically  !
 ! D150  D(23,43,54,60)        176.1901         calculate D2E/DX2 analytically  !
 ! D151  D(44,43,54,56)        179.6088         calculate D2E/DX2 analytically  !
 ! D152  D(44,43,54,60)         -1.1332         calculate D2E/DX2 analytically  !
 ! D153  D(20,44,53,50)         -4.653          calculate D2E/DX2 analytically  !
 ! D154  D(20,44,53,59)        173.5325         calculate D2E/DX2 analytically  !
 ! D155  D(43,44,53,50)       -177.1676         calculate D2E/DX2 analytically  !
 ! D156  D(43,44,53,59)          1.0179         calculate D2E/DX2 analytically  !
 ! D157  D(29,50,53,44)        -23.864          calculate D2E/DX2 analytically  !
 ! D158  D(29,50,53,59)        158.0389         calculate D2E/DX2 analytically  !
 ! D159  D(57,50,53,44)         89.515          calculate D2E/DX2 analytically  !
 ! D160  D(57,50,53,59)        -88.5821         calculate D2E/DX2 analytically  !
 ! D161  D(58,50,53,44)       -153.1603         calculate D2E/DX2 analytically  !
 ! D162  D(58,50,53,59)         28.7427         calculate D2E/DX2 analytically  !
 ! D163  D(44,53,59,60)         -1.1491         calculate D2E/DX2 analytically  !
 ! D164  D(44,53,59,61)        179.2925         calculate D2E/DX2 analytically  !
 ! D165  D(50,53,59,60)        176.8732         calculate D2E/DX2 analytically  !
 ! D166  D(50,53,59,61)         -2.6852         calculate D2E/DX2 analytically  !
 ! D167  D(43,54,60,59)          0.9609         calculate D2E/DX2 analytically  !
 ! D168  D(43,54,60,62)       -179.4458         calculate D2E/DX2 analytically  !
 ! D169  D(56,54,60,59)       -179.7877         calculate D2E/DX2 analytically  !
 ! D170  D(56,54,60,62)         -0.1945         calculate D2E/DX2 analytically  !
 ! D171  D(53,59,60,54)          0.1505         calculate D2E/DX2 analytically  !
 ! D172  D(53,59,60,62)       -179.4432         calculate D2E/DX2 analytically  !
 ! D173  D(61,59,60,54)        179.7048         calculate D2E/DX2 analytically  !
 ! D174  D(61,59,60,62)          0.1112         calculate D2E/DX2 analytically  !
 ! D175  D(123,64,70,80)       177.9297         calculate D2E/DX2 analytically  !
 ! D176  D(123,64,70,126)      -62.3004         calculate D2E/DX2 analytically  !
 ! D177  D(123,64,70,127)       55.1375         calculate D2E/DX2 analytically  !
 ! D178  D(124,64,70,80)        59.3067         calculate D2E/DX2 analytically  !
 ! D179  D(124,64,70,126)      179.0765         calculate D2E/DX2 analytically  !
 ! D180  D(124,64,70,127)      -63.4855         calculate D2E/DX2 analytically  !
 ! D181  D(125,64,70,80)       -63.7458         calculate D2E/DX2 analytically  !
 ! D182  D(125,64,70,126)       56.024          calculate D2E/DX2 analytically  !
 ! D183  D(125,64,70,127)      173.462          calculate D2E/DX2 analytically  !
 ! D184  D(9,66,69,8)           16.495          calculate D2E/DX2 analytically  !
 ! D185  D(9,66,128,78)        -87.9417         calculate D2E/DX2 analytically  !
 ! D186  D(121,68,78,87)       -77.5818         calculate D2E/DX2 analytically  !
 ! D187  D(121,68,78,102)     -157.9143         calculate D2E/DX2 analytically  !
 ! D188  D(121,68,78,128)       22.1583         calculate D2E/DX2 analytically  !
 ! D189  D(8,69,128,78)       -102.2968         calculate D2E/DX2 analytically  !
 ! D190  D(64,70,80,81)         60.4065         calculate D2E/DX2 analytically  !
 ! D191  D(64,70,80,93)        -61.2207         calculate D2E/DX2 analytically  !
 ! D192  D(126,70,80,81)       -63.0383         calculate D2E/DX2 analytically  !
 ! D193  D(126,70,80,93)       175.3346         calculate D2E/DX2 analytically  !
 ! D194  D(127,70,80,81)      -175.3069         calculate D2E/DX2 analytically  !
 ! D195  D(127,70,80,93)        63.066          calculate D2E/DX2 analytically  !
 ! D196  D(65,72,82,85)         68.5779         calculate D2E/DX2 analytically  !
 ! D197  D(65,72,82,87)        -48.6489         calculate D2E/DX2 analytically  !
 ! D198  D(65,72,82,96)       -174.362          calculate D2E/DX2 analytically  !
 ! D199  D(71,72,82,85)        -51.4429         calculate D2E/DX2 analytically  !
 ! D200  D(71,72,82,87)       -168.6697         calculate D2E/DX2 analytically  !
 ! D201  D(71,72,82,96)         65.6172         calculate D2E/DX2 analytically  !
 ! D202  D(74,72,82,85)       -170.1562         calculate D2E/DX2 analytically  !
 ! D203  D(74,72,82,87)         72.6169         calculate D2E/DX2 analytically  !
 ! D204  D(74,72,82,96)        -53.0962         calculate D2E/DX2 analytically  !
 ! D205  D(67,75,86,87)        -57.9928         calculate D2E/DX2 analytically  !
 ! D206  D(67,75,86,89)         67.32           calculate D2E/DX2 analytically  !
 ! D207  D(67,75,86,98)       -175.6387         calculate D2E/DX2 analytically  !
 ! D208  D(73,75,86,87)         61.2164         calculate D2E/DX2 analytically  !
 ! D209  D(73,75,86,89)       -173.4708         calculate D2E/DX2 analytically  !
 ! D210  D(73,75,86,98)        -56.4296         calculate D2E/DX2 analytically  !
 ! D211  D(76,75,86,87)       -178.5558         calculate D2E/DX2 analytically  !
 ! D212  D(76,75,86,89)        -53.243          calculate D2E/DX2 analytically  !
 ! D213  D(76,75,86,98)         63.7982         calculate D2E/DX2 analytically  !
 ! D214  D(68,78,87,82)        -13.2454         calculate D2E/DX2 analytically  !
 ! D215  D(68,78,87,86)        126.2103         calculate D2E/DX2 analytically  !
 ! D216  D(68,78,87,108)      -120.1374         calculate D2E/DX2 analytically  !
 ! D217  D(95,78,87,82)        171.6766         calculate D2E/DX2 analytically  !
 ! D218  D(95,78,87,86)        -48.8677         calculate D2E/DX2 analytically  !
 ! D219  D(95,78,87,108)        64.7846         calculate D2E/DX2 analytically  !
 ! D220  D(102,78,87,82)        76.609          calculate D2E/DX2 analytically  !
 ! D221  D(102,78,87,86)      -143.9353         calculate D2E/DX2 analytically  !
 ! D222  D(102,78,87,108)      -30.283          calculate D2E/DX2 analytically  !
 ! D223  D(128,78,87,82)      -101.6653         calculate D2E/DX2 analytically  !
 ! D224  D(128,78,87,86)        37.7903         calculate D2E/DX2 analytically  !
 ! D225  D(128,78,87,108)      151.4427         calculate D2E/DX2 analytically  !
 ! D226  D(68,78,102,101)      -63.7599         calculate D2E/DX2 analytically  !
 ! D227  D(68,78,102,111)      119.7699         calculate D2E/DX2 analytically  !
 ! D228  D(87,78,102,101)     -159.4525         calculate D2E/DX2 analytically  !
 ! D229  D(87,78,102,111)       24.0773         calculate D2E/DX2 analytically  !
 ! D230  D(95,78,102,101)      109.4113         calculate D2E/DX2 analytically  !
 ! D231  D(95,78,102,111)      -67.059          calculate D2E/DX2 analytically  !
 ! D232  D(101,102,128,69)     -19.8915         calculate D2E/DX2 analytically  !
 ! D233  D(111,102,128,69)     162.9283         calculate D2E/DX2 analytically  !
 ! D234  D(68,78,128,69)        44.0798         calculate D2E/DX2 analytically  !
 ! D235  D(87,78,128,69)       139.4759         calculate D2E/DX2 analytically  !
 ! D236  D(95,78,128,69)      -129.1151         calculate D2E/DX2 analytically  !
 ! D237  D(70,80,81,77)         47.1612         calculate D2E/DX2 analytically  !
 ! D238  D(70,80,81,88)        -71.9078         calculate D2E/DX2 analytically  !
 ! D239  D(70,80,81,101)       163.7004         calculate D2E/DX2 analytically  !
 ! D240  D(93,80,81,77)        170.7872         calculate D2E/DX2 analytically  !
 ! D241  D(93,80,81,88)         51.7182         calculate D2E/DX2 analytically  !
 ! D242  D(93,80,81,101)       -72.6736         calculate D2E/DX2 analytically  !
 ! D243  D(70,80,93,90)       -171.6605         calculate D2E/DX2 analytically  !
 ! D244  D(70,80,93,103)       -49.6213         calculate D2E/DX2 analytically  !
 ! D245  D(70,80,93,105)        73.3308         calculate D2E/DX2 analytically  !
 ! D246  D(81,80,93,90)         66.7691         calculate D2E/DX2 analytically  !
 ! D247  D(81,80,93,103)      -171.1917         calculate D2E/DX2 analytically  !
 ! D248  D(81,80,93,105)       -48.2396         calculate D2E/DX2 analytically  !
 ! D249  D(77,81,101,102)       75.9121         calculate D2E/DX2 analytically  !
 ! D250  D(77,81,101,112)     -101.0737         calculate D2E/DX2 analytically  !
 ! D251  D(80,81,101,102)      -39.6781         calculate D2E/DX2 analytically  !
 ! D252  D(80,81,101,112)      143.3361         calculate D2E/DX2 analytically  !
 ! D253  D(88,81,101,102)     -164.8365         calculate D2E/DX2 analytically  !
 ! D254  D(88,81,101,112)       18.1776         calculate D2E/DX2 analytically  !
 ! D255  D(72,82,85,79)        -63.9474         calculate D2E/DX2 analytically  !
 ! D256  D(72,82,85,83)         56.1172         calculate D2E/DX2 analytically  !
 ! D257  D(72,82,85,104)       173.2488         calculate D2E/DX2 analytically  !
 ! D258  D(87,82,85,79)         53.8621         calculate D2E/DX2 analytically  !
 ! D259  D(87,82,85,83)        173.9267         calculate D2E/DX2 analytically  !
 ! D260  D(87,82,85,104)       -68.9417         calculate D2E/DX2 analytically  !
 ! D261  D(96,82,85,79)        177.0801         calculate D2E/DX2 analytically  !
 ! D262  D(96,82,85,83)        -62.8553         calculate D2E/DX2 analytically  !
 ! D263  D(96,82,85,104)        54.2763         calculate D2E/DX2 analytically  !
 ! D264  D(72,82,87,78)         83.7464         calculate D2E/DX2 analytically  !
 ! D265  D(72,82,87,86)        -59.4643         calculate D2E/DX2 analytically  !
 ! D266  D(72,82,87,108)      -172.0293         calculate D2E/DX2 analytically  !
 ! D267  D(85,82,87,78)        -34.1157         calculate D2E/DX2 analytically  !
 ! D268  D(85,82,87,86)       -177.3264         calculate D2E/DX2 analytically  !
 ! D269  D(85,82,87,108)        70.1086         calculate D2E/DX2 analytically  !
 ! D270  D(96,82,87,78)       -152.9201         calculate D2E/DX2 analytically  !
 ! D271  D(96,82,87,86)         63.8692         calculate D2E/DX2 analytically  !
 ! D272  D(96,82,87,108)       -48.6958         calculate D2E/DX2 analytically  !
 ! D273  D(72,82,96,94)        -60.569          calculate D2E/DX2 analytically  !
 ! D274  D(72,82,96,99)         58.3717         calculate D2E/DX2 analytically  !
 ! D275  D(72,82,96,110)      -177.4081         calculate D2E/DX2 analytically  !
 ! D276  D(85,82,96,94)         57.5864         calculate D2E/DX2 analytically  !
 ! D277  D(85,82,96,99)        176.5271         calculate D2E/DX2 analytically  !
 ! D278  D(85,82,96,110)       -59.2527         calculate D2E/DX2 analytically  !
 ! D279  D(87,82,96,94)        176.8261         calculate D2E/DX2 analytically  !
 ! D280  D(87,82,96,99)        -64.2332         calculate D2E/DX2 analytically  !
 ! D281  D(87,82,96,110)        59.987          calculate D2E/DX2 analytically  !
 ! D282  D(75,86,87,78)        -49.873          calculate D2E/DX2 analytically  !
 ! D283  D(75,86,87,82)         92.7676         calculate D2E/DX2 analytically  !
 ! D284  D(75,86,87,108)      -158.1403         calculate D2E/DX2 analytically  !
 ! D285  D(89,86,87,78)       -171.3988         calculate D2E/DX2 analytically  !
 ! D286  D(89,86,87,82)        -28.7582         calculate D2E/DX2 analytically  !
 ! D287  D(89,86,87,108)        80.334          calculate D2E/DX2 analytically  !
 ! D288  D(98,86,87,78)         67.3605         calculate D2E/DX2 analytically  !
 ! D289  D(98,86,87,82)       -149.9989         calculate D2E/DX2 analytically  !
 ! D290  D(98,86,87,108)       -40.9067         calculate D2E/DX2 analytically  !
 ! D291  D(75,86,89,84)        -56.0209         calculate D2E/DX2 analytically  !
 ! D292  D(75,86,89,92)         62.4643         calculate D2E/DX2 analytically  !
 ! D293  D(75,86,89,106)      -179.493          calculate D2E/DX2 analytically  !
 ! D294  D(87,86,89,84)         63.0385         calculate D2E/DX2 analytically  !
 ! D295  D(87,86,89,92)       -178.4763         calculate D2E/DX2 analytically  !
 ! D296  D(87,86,89,106)       -60.4336         calculate D2E/DX2 analytically  !
 ! D297  D(98,86,89,84)       -174.3197         calculate D2E/DX2 analytically  !
 ! D298  D(98,86,89,92)        -55.8345         calculate D2E/DX2 analytically  !
 ! D299  D(98,86,89,106)        62.2082         calculate D2E/DX2 analytically  !
 ! D300  D(75,86,98,97)         62.1405         calculate D2E/DX2 analytically  !
 ! D301  D(75,86,98,100)       -56.6918         calculate D2E/DX2 analytically  !
 ! D302  D(75,86,98,113)      -174.38           calculate D2E/DX2 analytically  !
 ! D303  D(87,86,98,97)        -52.6999         calculate D2E/DX2 analytically  !
 ! D304  D(87,86,98,100)      -171.5323         calculate D2E/DX2 analytically  !
 ! D305  D(87,86,98,113)        70.7796         calculate D2E/DX2 analytically  !
 ! D306  D(89,86,98,97)       -179.0612         calculate D2E/DX2 analytically  !
 ! D307  D(89,86,98,100)        62.1064         calculate D2E/DX2 analytically  !
 ! D308  D(89,86,98,113)       -55.5817         calculate D2E/DX2 analytically  !
 ! D309  D(78,87,108,111)       40.166          calculate D2E/DX2 analytically  !
 ! D310  D(78,87,108,115)      -75.4031         calculate D2E/DX2 analytically  !
 ! D311  D(78,87,108,116)      166.5519         calculate D2E/DX2 analytically  !
 ! D312  D(82,87,108,111)      -80.8469         calculate D2E/DX2 analytically  !
 ! D313  D(82,87,108,115)      163.5839         calculate D2E/DX2 analytically  !
 ! D314  D(82,87,108,116)       45.539          calculate D2E/DX2 analytically  !
 ! D315  D(86,87,108,111)      164.209          calculate D2E/DX2 analytically  !
 ! D316  D(86,87,108,115)       48.6398         calculate D2E/DX2 analytically  !
 ! D317  D(86,87,108,116)      -69.4051         calculate D2E/DX2 analytically  !
 ! D318  D(80,93,103,91)       -47.6718         calculate D2E/DX2 analytically  !
 ! D319  D(80,93,103,107)       73.6477         calculate D2E/DX2 analytically  !
 ! D320  D(80,93,103,109)     -166.8629         calculate D2E/DX2 analytically  !
 ! D321  D(90,93,103,91)        72.5025         calculate D2E/DX2 analytically  !
 ! D322  D(90,93,103,107)     -166.178          calculate D2E/DX2 analytically  !
 ! D323  D(90,93,103,109)      -46.6886         calculate D2E/DX2 analytically  !
 ! D324  D(105,93,103,91)     -170.4752         calculate D2E/DX2 analytically  !
 ! D325  D(105,93,103,107)     -49.1557         calculate D2E/DX2 analytically  !
 ! D326  D(105,93,103,109)      70.3337         calculate D2E/DX2 analytically  !
 ! D327  D(81,101,102,78)        6.2829         calculate D2E/DX2 analytically  !
 ! D328  D(81,101,102,111)    -177.254          calculate D2E/DX2 analytically  !
 ! D329  D(112,101,102,78)    -176.5903         calculate D2E/DX2 analytically  !
 ! D330  D(112,101,102,111)     -0.1271         calculate D2E/DX2 analytically  !
 ! D331  D(81,101,112,114)      -3.6914         calculate D2E/DX2 analytically  !
 ! D332  D(81,101,112,118)     175.9708         calculate D2E/DX2 analytically  !
 ! D333  D(102,101,112,114)    179.5124         calculate D2E/DX2 analytically  !
 ! D334  D(102,101,112,118)     -0.8255         calculate D2E/DX2 analytically  !
 ! D335  D(78,102,111,108)      -1.8067         calculate D2E/DX2 analytically  !
 ! D336  D(78,102,111,117)     177.3235         calculate D2E/DX2 analytically  !
 ! D337  D(101,102,111,108)   -178.0851         calculate D2E/DX2 analytically  !
 ! D338  D(101,102,111,117)      1.0451         calculate D2E/DX2 analytically  !
 ! D339  D(87,108,111,102)     -28.3865         calculate D2E/DX2 analytically  !
 ! D340  D(87,108,111,117)     152.5255         calculate D2E/DX2 analytically  !
 ! D341  D(115,108,111,102)     85.275          calculate D2E/DX2 analytically  !
 ! D342  D(115,108,111,117)    -93.813          calculate D2E/DX2 analytically  !
 ! D343  D(116,108,111,102)   -156.688          calculate D2E/DX2 analytically  !
 ! D344  D(116,108,111,117)     24.2239         calculate D2E/DX2 analytically  !
 ! D345  D(102,111,117,118)     -0.9807         calculate D2E/DX2 analytically  !
 ! D346  D(102,111,117,119)    179.3943         calculate D2E/DX2 analytically  !
 ! D347  D(108,111,117,118)    178.0696         calculate D2E/DX2 analytically  !
 ! D348  D(108,111,117,119)     -1.5555         calculate D2E/DX2 analytically  !
 ! D349  D(101,112,118,117)      0.8516         calculate D2E/DX2 analytically  !
 ! D350  D(101,112,118,120)   -179.5518         calculate D2E/DX2 analytically  !
 ! D351  D(114,112,118,117)   -179.4898         calculate D2E/DX2 analytically  !
 ! D352  D(114,112,118,120)      0.1067         calculate D2E/DX2 analytically  !
 ! D353  D(111,117,118,112)      0.0291         calculate D2E/DX2 analytically  !
 ! D354  D(111,117,118,120)   -179.5679         calculate D2E/DX2 analytically  !
 ! D355  D(119,117,118,112)    179.6503         calculate D2E/DX2 analytically  !
 ! D356  D(119,117,118,120)      0.0533         calculate D2E/DX2 analytically  !
 --------------------------------------------------------------------------------
 Trust Radius=3.00D-01 FncErr=1.00D-07 GrdErr=1.00D-07 EigMax=2.50D+02 EigMin=1.00D-04
 Number of steps in this run=      2 maximum allowed number of steps=      2.
 GradGradGradGradGradGradGradGradGradGradGradGradGradGradGradGradGradGrad

 Stoichiometry    C40H74N4O6P2Ru2(3)
 Framework group  C1[X(C40H74N4O6P2Ru2)]
 Deg. of freedom   378
 Full point group                 C1      NOp   1
 Largest Abelian subgroup         C1      NOp   1
 Largest concise Abelian subgroup C1      NOp   1
                         Standard orientation:                         
 ---------------------------------------------------------------------
 Center     Atomic      Atomic             Coordinates (Angstroms)
 Number     Number       Type             X           Y           Z
 ---------------------------------------------------------------------
      1          1           0       -1.036469    3.369855    3.086858
      2          6           0       -1.877382    2.671750    2.959780
      3          1           0       -2.494199    2.734438    3.869280
      4          1           0       -1.452239    1.659360    2.885732
      5          1           0       -0.507419   -0.711388   -1.975038
      6          8           0       -1.820187    1.311053   -0.745822
      7          1           0       -0.323822   -2.699163   -0.179143
      8          8           0       -0.705687    1.265913   -0.068040
      9          1           0       -0.939255   -0.267171    1.974309
     10          6           0       -2.636824    3.059835    1.710698
     11          1           0       -0.557412   -1.157730   -3.693578
     12          1           0       -3.074235    4.071222    1.821540
     13          6           0       -0.904006   -1.445402   -2.686815
     14          1           0       -1.203483   -2.512956    1.341128
     15          1           0       -0.448403   -2.416140   -2.447113
     16          1           0       -1.946516    3.096545    0.857966
     17          6           0       -1.068341   -3.176908    0.475827
     18          1           0       -0.644707   -4.130427    0.834703
     19          1           0       -3.610359    2.886670   -0.596543
     20         44           0       -3.009808    0.085818    0.505041
     21          1           0       -2.627767    0.693818   -2.506793
     22          7           0       -3.712659    2.112282    1.329991
     23          6           0       -4.399647    2.662874    0.139464
     24          6           0       -2.431735   -1.489763   -2.672113
     25          1           0       -2.598708    0.046296   -4.161536
     26          1           0       -1.389817   -4.276534   -2.004964
     27          6           0       -2.972832   -0.131562   -3.139168
     28          6           0       -2.397579   -3.458192   -0.232043
     29         15           0       -3.003966   -1.764286   -0.868301
     30          1           0       -4.920240    3.607831    0.369597
     31          6           0       -2.187525   -4.534003   -1.296201
     32          1           0       -4.144515    1.361188    3.227043
     33          1           0       -4.655379    3.834861    3.441926
     34          1           0       -1.882066   -5.464186   -0.788161
     35          6           0       -4.682614    1.890227    2.431007
     36          1           0       -2.655891   -2.202410   -4.683094
     37          6           0       -3.547615   -0.873285    1.964464
     38          6           0       -2.945895   -2.530874   -3.670840
     39          1           0       -3.664928   -3.291033    1.567261
     40          6           0       -3.402043   -4.010380    0.782797
     41          1           0       -2.526965   -3.530322   -3.522659
     42          1           0       -2.943104   -4.879562    1.282530
     43          6           0       -5.342342    1.669219   -0.479403
     44          7           0       -4.843099    0.426123   -0.546747
     45          6           0       -5.367760    3.124388    2.997718
     46          1           0       -4.072018   -0.118760   -3.190475
     47          1           0       -5.434029    1.183717    2.048702
     48          1           0       -3.106542   -4.755439   -1.858531
     49          1           0       -5.969855    3.663070    2.250450
     50          6           0       -4.870582   -1.930444   -1.058735
     51          1           0       -6.054427    2.806702    3.796507
     52          1           0       -4.043903   -2.608632   -3.666872
     53          6           0       -5.527403   -0.581079   -1.115597
     54          6           0       -6.597225    1.965794   -0.996437
     55          1           0       -4.324634   -4.365923    0.298086
     56          1           0       -6.995888    2.979088   -0.930385
     57          1           0       -5.197757   -2.415468   -0.124317
     58          1           0       -5.192573   -2.572482   -1.891423
     59          6           0       -6.782926   -0.341349   -1.674487
     60          6           0       -7.319712    0.942310   -1.611399
     61          1           0       -7.334001   -1.155891   -2.146654
     62          1           0       -8.304744    1.144724   -2.035712
     63          8           0       -3.877954   -1.415153    2.946735
     64          6           0        1.952810   -3.886765    2.673905
     65          1           0        0.590005    1.456773   -1.779196
     66          8           0       -0.271238   -0.286140    2.683691
     67          1           0        1.011792    3.362811   -0.253990
     68          8           0        1.586456   -0.940963   -0.354055
     69          1           0        0.515390    0.073131    2.227419
     70          6           0        1.995659   -2.437194    2.216593
     71          1           0        0.644599    1.537778   -3.561613
     72          6           0        1.129995    1.884917   -2.633923
     73          1           0        1.900240    3.083057    1.242209
     74          1           0        1.006323    2.976888   -2.590766
     75          6           0        1.874838    3.703423    0.335919
     76          1           0        1.712978    4.757020    0.620631
     77          1           0        2.733780   -2.804868   -0.128292
     78         44           0        3.055212    0.121135    0.690588
     79          1           0        2.211817   -0.627001   -2.158742
     80          7           0        3.286929   -1.955264    1.673911
     81          6           0        3.647083   -2.761522    0.486937
     82          6           0        2.600208    1.466048   -2.654179
     83          1           0        2.155485   -0.212114   -3.914976
     84          1           0        2.347593    4.452839   -2.276650
     85          6           0        2.683454   -0.035217   -2.961809
     86          6           0        3.195614    3.591509   -0.436025
     87         15           0        3.345746    1.750312   -0.912082
     88          1           0        3.954387   -3.783005    0.769832
     89          6           0        3.201606    4.581660   -1.600116
     90          1           0        5.247899   -1.512200    2.219342
     91          1           0        3.585564   -0.422990    3.892275
     92          1           0        3.137149    5.601471   -1.184393
     93          6           0        4.382444   -2.026885    2.663911
     94          1           0        2.860632    1.914439   -4.731261
     95          6           0        4.192260    0.958187    1.839509
     96          6           0        3.340292    2.197148   -3.778820
     97          1           0        4.450368    3.320295    1.358169
     98          6           0        4.350448    3.980336    0.489783
[...]
 -0.00020021,-0.00013976,-0.00007939,0.00000691,0.00001279,0.00001111,-
 0.00014276,-0.00005405,-0.00003980,0.00021457,-0.00004931,-0.00010341,
 -0.00000126,0.00000660,-0.00000193,0.00031259,0.00025678,-0.00058904,-
 0.00000065,-0.00000132,-0.00000336,-0.00033111,0.00003578,0.00005207,0
 .00000733,0.00000200,-0.00000409,-0.00000764,0.00000264,-0.00000381,0.
 00000342,0.00001413,0.00000135,-0.00000061,0.00000388,-0.00000270,-0.0
 0000145,0.00000231,0.00000304,0.00006235,-0.00100718,0.00017643,0.0000
 2640,0.00031831,-0.00002479,0.00169151,-0.00025426,-0.00083459,0.00001
 074,0.00000018,0.00000728,-0.00001254,-0.00006425,0.00001089,0.0000044
 9,-0.00000419,0.00000481,0.00128425,-0.00008402,-0.00050391,0.00001804
 ,0.00000454,0.00005298,0.00052696,-0.00001171,0.00012291,0.00000674,-0
 .00000238,0.00000317,-0.00001078,-0.00006976,-0.00001384,-0.00025341,0
 .00031688,-0.00029816,0.00000824,-0.00000332,0.00000271,0.00002693,0.0
 0002304,0.00001264,-0.00001589,0.00000527,-0.00001184,0.00002477,0.000
 01604,0.00000662,0.00000656,0.00009040,-0.00001859,0.00001731,-0.00012
 706,0.00004325,-0.00000007,0.00000827,0.00000265,-0.00002809,0.0000202
 4,-0.00002259,-0.00004035,0.00003441,-0.00015305,0.00014311,-0.0000510
 3,-0.00010346,0.00011878,-0.00078862,0.00066526,0.00025559,-0.00043658
 ,0.00058306,0.00018011,0.00319654,0.00036883,-0.00635248,-0.01384577,-
 0.01510379,0.06110550,0.13791831,0.22669084,0.00003496,0.00012555,0.00
 004736,-0.00008945,0.00004234,0.00001929,-0.00009873,-0.00006991,-0.00
 001780,0.00036733,0.00017149,0.00003613,-0.00009729,-0.00004326,-0.000
 05407,-0.00053894,-0.00008821,0.00050897,-0.00007955,0.00002096,0.0000
 1905,-0.00008119,0.00014620,0.00033456,0.00064469,0.00004996,-0.000816
 12,0.00014894,-0.00002047,-0.00017395,0.00000859,-0.00000819,0.0000601
 1,-0.00009967,-0.00005295,0.00006034,0.00002805,-0.00001354,0.00000810
 ,0.00011598,-0.00014780,-0.00001496,-0.00002033,0.00004440,0.00000262,
 0.00001936,0.00004421,-0.00001433,-0.00008153,-0.00004543,-0.00012616,
 0.00000388,0.00006991,0.00000832,0.00002910,0.00002308,-0.00001809,0.0
 0020438,0.00007488,0.00012597,-0.00000119,-0.00000244,-0.00008187,-0.0
 0011870,-0.00007709,0.00003489,0.00001578,0.00006872,-0.00005401,-0.00
 009733,0.00011428,-0.00002194,-0.00000044,0.00000985,0.00005865,0.0000
 0806,-0.00000804,0.00002655,0.00003128,-0.00001212,0.00000110,0.000025
 87,0.00007621,0.00017796,0.00000837,-0.00037178,-0.00039247,-0.0000201
 1,-0.00001796,0.00000102,-0.00003378,0.00003827,-0.00006199,0.00003509
 ,-0.00002021,0.00001562,0.00001692,0.00002087,0.00001108,0.00000744,0.
 00004040,0.00000190,0.00006407,0.00002386,0.00003206,-0.00001011,0.000
 00920,0.00005298,-0.00003058,0.00006888,-0.00014781,0.00007513,-0.0000
 3854,0.00006459,0.00002389,-0.00002563,-0.00000044,0.00002381,-0.00000
 290,-0.00000786,-0.00000416,0.00002108,-0.00000947,0.00000844,0.000015
 47,-0.00001361,-0.00005626,-0.00004664,-0.00000791,-0.00000659,-0.0000
 6308,0.00019755,-0.00000706,-0.00001306,-0.00001630,0.00001568,0.00001
 245,-0.00001647,-0.00002610,0.00000236,0.00001354,-0.00000109,0.000005
 92,0.00001735,-0.00001191,-0.00000947,0.00001674,0.00002689,0.00008180
 ,0.00009419,-0.00001166,0.00000508,-0.00001041,0.00001895,-0.00001204,
 -0.00002237,-0.00012813,-0.00007664,0.00001250,-0.00001239,0.00003834,
 -0.00002888,-0.00000020,-0.00000248,0.00001477,-0.00000442,-0.00001537
 ,-0.00000230,0.00003669,-0.00001250,-0.00000886,-0.00005054,0.00001271
 ,0.00001628,0.00005236,0.00007139,-0.00004240,-0.00006372,-0.00005452,
 0.00002793,-0.00001394,0.00001290,0.00001432,-0.00000892,0.00000114,0.
 00000305,-0.00002476,0.00001586,0.00005680,0.00034654,-0.00000755,0.00
 020040,-0.00017928,-0.00008681,-0.00012161,-0.01081242,0.00541486,-0.0
 0470753,0.00002825,0.00014451,-0.00015768,0.00500660,0.00270761,0.0041
 3577,0.00558665,-0.00292678,0.00245730,-0.00080212,-0.00005144,-0.0003
 7241,0.00010266,0.00002178,-0.00002593,-0.00009570,-0.00004576,-0.0000
 7870,-0.00020232,0.00046849,0.00032861,0.00003175,0.00009146,-0.000038
 57,0.00006097,-0.00019676,-0.00051044,0.00017846,-0.00020471,0.0003373
 0,-0.00003852,-0.00014477,0.00019855,-0.09208912,-0.02387977,-0.032539
 66,-0.00022028,0.00005142,-0.00013348,0.00008675,-0.00006273,0.0000327
 0,0.00038673,-0.00009235,-0.00069973,-0.00017180,0.00039703,0.00000430
 ,0.00007986,0.00004463,-0.00011264,-0.00001497,-0.00002252,-0.00004270
 ,-0.00000565,-0.00006224,0.00003665,-0.00037784,-0.00037120,-0.0004961
 3,-0.00045936,-0.00097367,0.00038608,0.00003657,-0.00012696,0.00013759
 ,0.00020351,0.00028716,0.00033091,0.00023146,-0.00002739,-0.00005054,-
 0.00020666,0.00005727,0.00002832,-0.00001172,0.00016593,-0.00007904,0.
 00006624,0.00004997,-0.00024609,-0.00001204,0.00003775,-0.00011287,-0.
 00654093,-0.00547195,-0.00713256,0.00014844,-0.00013539,-0.00016109,-0
 .00017006,-0.00009704,-0.00003280,0.00017441,0.00020887,0.00002574,0.0
 0000145,0.00002921,-0.00001659,-0.00003559,0.00012610,0.00004325,-0.00
 259339,0.00206086,-0.00151261,-0.00528806,-0.00964920,-0.01389382,-0.0
 0003138,-0.00024714,-0.00004138,0.00012756,0.00001448,0.00015722,-0.00
 001171,-0.00000650,0.00012111,0.00007652,-0.00009750,0.00011071,0.0000
 3298,-0.00003345,0.00009374,0.00039431,0.00054036,-0.00018608,0.000067
 41,0.00008384,0.00003008,0.00007065,-0.00000675,0.00007685,0.00005259,
 -0.00315003,0.00106319,-0.00046540,-0.00087919,0.00090508,0.00013135,-
 0.00008838,0.00004817,-0.00026138,-0.00026026,-0.00018793,0.00006889,-
 0.00000332,-0.00004663,-0.00001652,0.00011598,-0.00010949,-0.00081911,
 0.00068774,0.00021345,-0.00004819,-0.00011386,-0.00017858,-0.00022729,
 -0.00008607,-0.00023611,0.00003060,-0.00002624,-0.00008853,0.00115912,
 -0.00071609,-0.00168565,0.00241499,0.00161227,0.00186241,0.00005327,-0
 .00011928,0.00006831,-0.00000598,0.00004562,-0.00004501,-0.00002992,0.
 00018000,0.00000303,-0.00004029,-0.00020958,-0.00034050,-0.00017125,-0
 .00012730,0.00047890,0.10484960,0.00001597,0.00005763,0.00001206,-0.00
 003309,0.00001198,0.00000152,-0.00003474,-0.00002215,-0.00000378,0.000
 11476,0.00000705,0.00001354,-0.00002550,0.00000295,-0.00001722,-0.0001
 7322,-0.00003580,0.00018391,-0.00002173,0.00002318,0.00000258,0.000065
 15,0.00004245,0.00009813,0.00030428,-0.00000351,-0.00020990,0.00004607
 ,0.00000281,-0.00006292,-0.00000710,0.00000497,0.00003527,-0.00003222,
 -0.00001679,0.00001726,0.00000287,-0.00000748,0.00000383,0.00003262,-0
 .00003506,-0.00000131,-0.00000032,-0.00000217,-0.00000563,0.00000421,0
 .00001626,-0.00000316,-0.00003748,0.00000964,-0.00003515,-0.00000119,0
 .00001193,0.00000105,0.00000960,0.00000938,-0.00000622,0.00004166,0.00
 002490,0.00003180,-0.00000086,-0.00000053,-0.00002883,-0.00003406,-0.0
 0003158,0.00001580,0.00000296,0.00002504,-0.00001878,-0.00002236,0.000
 02540,0.00000112,-0.00000101,0.00000379,0.00002188,0.00000439,-0.00000
 067,0.00000408,0.00000596,-0.00000088,0.00000049,0.00001150,0.00001741
 ,0.00003203,0.00001011,-0.00008042,-0.00011431,-0.00000732,-0.00000571
 ,-0.00000050,-0.00001301,0.00000774,-0.00001392,0.00000922,-0.00000785
 ,0.00000517,0.00000551,0.00000708,0.00000235,0.00000308,0.00000661,0.0
 0000067,0.00001648,0.00000601,0.00001353,-0.00000213,0.00000184,0.0000
 1597,-0.00000068,0.00001240,-0.00001767,0.00001778,-0.00001102,0.00001
 464,0.00000614,-0.00000573,0.00000094,-0.00000349,0.00000056,0.0000038
 8,-0.00000117,0.00000433,-0.00000432,0.00000390,0.00000056,-0.00000255
 ,-0.00001755,-0.00001618,-0.00000442,0.00001587,-0.00001762,0.00004613
 ,-0.00000151,-0.00000296,-0.00000481,0.00000417,0.00000083,-0.00000308
 ,-0.00000552,-0.00000059,0.00000423,-0.00000338,0.00000370,0.00000630,
 -0.00000427,-0.00000284,0.00000538,0.00000537,0.00001254,0.00002849,-0
 .00000351,0.00000167,-0.00000332,0.00000345,-0.00000213,-0.00000506,-0
 .00003464,-0.00001039,0.00000450,-0.00000176,0.00000996,-0.00000792,-0
 .00000484,0.00000092,0.00000368,-0.00000130,-0.00000442,-0.00000128,0.
 00001179,-0.00000285,-0.00000267,-0.00001434,0.00000400,0.00000440,0.0
 0001239,0.00001650,-0.00001148,-0.00001919,-0.00001422,0.00000958,-0.0
 0000280,0.00000320,0.00000365,-0.00000311,0.00000051,0.00000100,-0.000
 01406,0.00000859,0.00000206,-0.00014493,0.00015195,-0.00005215,-0.0000
 9683,0.00000601,-0.00010518,0.00074119,0.00049659,0.00085189,-0.000090
 87,0.00009359,-0.00012581,-0.00088426,-0.00130074,-0.00166793,0.002061
 54,-0.00199509,0.00068453,0.00010858,0.00016857,0.00007115,0.00001937,
 0.00001078,-0.00004447,-0.00006522,-0.00002391,0.00002276,-0.00019929,
 -0.00059382,0.00058503,-0.00000470,0.00001948,-0.00000707,-0.00005440,
 -0.00131126,-0.00027299,0.00004492,-0.00021140,0.00029477,-0.00005726,
 -0.00004258,0.00011164,-0.03475874,-0.05587194,-0.02072400,-0.00003101
 ,0.00001449,-0.00005052,-0.00078640,0.00114679,-0.00199521,0.00001797,
 -0.00011105,-0.00029433,-0.00043307,0.00018511,0.00000651,0.00001220,-
 0.00002903,-0.00004661,0.00001988,-0.00001837,-0.00004494,0.00005106,-
 0.00000020,-0.00001400,-0.00083824,0.00062727,-0.00132618,0.00429452,0
 .00293979,0.00196026,0.00000622,-0.00002812,0.00000200,0.00011083,0.00
 045823,0.00051801,0.00011739,-0.00002215,0.00003548,-0.00014322,-0.000
 01964,0.00000120,-0.00000627,0.00024275,-0.00018246,-0.00025173,0.0002
 8094,-0.00004110,-0.00003357,0.00001994,-0.00009541,0.00588871,0.00334
 509,0.00049247,0.00014691,-0.00011646,-0.00014420,0.00001684,-0.000130
 08,-0.00001440,0.00016645,0.00012171,-0.00004773,0.00000271,0.00000213
 ,0.00002816,-0.00005949,0.00008127,0.00003877,0.00066676,0.00088895,0.
 00039613,-0.00598229,0.00569911,-0.00597246,0.00013057,0.00003374,-0.0
 0001798,0.00001414,-0.00000331,0.00002729,0.00008694,-0.00000364,-0.00
 003208,0.00000843,-0.00003417,0.00004601,0.00000437,-0.00003137,0.0000
 3011,-0.00016758,-0.00043069,0.00008856,0.00002722,0.00003048,-0.00002
 163,0.00000180,-0.00000851,0.00001603,-0.00118053,-0.00149766,-0.00037
 732,0.00017339,0.00006349,0.00002869,0.00001818,0.00001845,-0.00001736
 ,0.00005949,0.00005044,-0.00001052,-0.00003988,0.00000552,0.00000048,0
 .00010175,0.00014353,0.00000004,-0.00060406,0.00022827,-0.00038237,-0.
 00000458,0.00027089,-0.00006232,-0.00020177,-0.00011218,-0.00008787,-0
 .00000418,-0.00001830,-0.00000167,-0.00039451,-0.00015468,-0.00020682,
 -0.00273789,0.00000616,0.00122016,-0.00001039,0.00002560,-0.00001413,0
 .00001817,-0.00000355,-0.00002135,-0.00000223,0.00003491,0.00002262,-0
 .00004469,-0.00002452,-0.00004184,0.00001779,-0.00015358,0.00006673,0.
 03495495,0.04632521,0.00002370,0.00007878,0.00003058,-0.00005389,0.000
 01934,0.00001297,-0.00006720,-0.00004198,-0.00001465,0.00021657,0.0001
 0081,0.00001461,-0.00005156,-0.00002383,0.00000996,-0.00024189,-0.0000
 1447,0.00023882,-0.00006188,0.00000286,0.00000342,0.00014320,0.0001126
 9,0.00008404,0.00011166,0.00009162,-0.00062017,0.00009211,-0.00001403,
 -0.00010265,0.00000083,-0.00000012,0.00003919,-0.00006266,-0.00003555,
 0.00003611,-0.00000166,-0.00000883,0.00001724,0.00006144,-0.00009378,-
 0.00001145,-0.00000963,0.00002439,-0.00000246,0.00002240,0.00003506,-0
 .00001630,-0.00004586,-0.00001453,-0.00006788,-0.00000616,0.00006173,0
 .00000283,0.00002116,0.00001631,-0.00001311,0.00008813,0.00008159,0.00
 007207,0.00000319,-0.00000208,-0.00005043,-0.00007634,-0.00005463,0.00
 001722,0.00000971,0.00004380,-0.00003265,-0.00004300,0.00007707,-0.000
 00370,0.00000103,0.00000656,0.00003257,0.00000278,-0.00000733,0.000014
 44,0.00001184,-0.00000604,-0.00000324,0.00001013,0.00004594,0.00009532
 ,0.00002039,-0.00024780,-0.00021765,-0.00001352,-0.00001177,0.00000078
 ,-0.00001701,0.00002250,-0.00003762,0.00001833,-0.00001573,0.00000778,
 0.00001135,0.00001260,0.00000722,0.00000402,0.00002810,-0.00000023,0.0
 0004446,0.00001219,0.00002904,-0.00000499,0.00000479,0.00003020,0.0000
 0961,0.00000001,-0.00002929,0.00003531,-0.00002356,0.00003407,0.000010
 29,-0.00001701,0.00000166,0.00001035,0.00000124,-0.00000195,-0.0000015
 0,0.00001365,-0.00000445,0.00000514,0.00001354,-0.00000844,-0.00003469
 ,-0.00003328,-0.00000814,0.00001964,-0.00003807,0.00011594,-0.00000514
 ,-0.00000880,-0.00001144,0.00000563,0.00000719,-0.00000856,-0.00001636
 ,-0.00000059,0.00000692,-0.00000023,0.00000307,0.00000977,-0.00000671,
 -0.00000569,0.00001044,0.00001520,0.00005337,0.00005258,-0.00000866,0.
 00000344,-0.00000736,0.00000646,-0.00000478,-0.00001068,-0.00007666,-0
 .00004048,0.00000962,-0.00000741,0.00002452,-0.00001891,-0.00000108,-0
 .00000069,0.00000835,-0.00000188,-0.00000954,-0.00000089,0.00001868,-0
 .00000690,-0.00000396,-0.00003059,0.00000725,0.00001135,0.00003147,0.0
 0004301,-0.00002829,-0.00004037,-0.00003355,0.00001802,-0.00000721,0.0
 0000753,0.00000939,-0.00000558,0.00000060,0.00000256,-0.00003589,0.000
 03976,-0.00001290,0.00037091,-0.00009766,0.00023289,0.00003981,-0.0000
 4295,-0.00003734,-0.00631262,0.00308117,-0.00160249,0.00012924,0.00013
 717,-0.00004609,-0.00060368,-0.00184969,-0.00093912,0.00343499,-0.0019
 8051,0.00116134,-0.00053742,-0.00031213,-0.00035018,0.00006231,0.00000
 646,0.00000693,-0.00006883,-0.00002610,-0.00002924,-0.00019983,0.00044
 973,0.00019603,0.00001938,0.00003487,-0.00001907,0.00009946,0.00000563
 ,-0.00013688,0.00010023,-0.00014058,0.00016881,-0.00006293,-0.00002478
 ,0.00001651,-0.03666307,-0.01406312,-0.05866594,-0.00008372,0.00006803
 ,-0.00001191,0.00069571,-0.00082184,0.00178526,-0.00003366,0.00010535,
 0.00065204,-0.00005103,0.00025082,0.00000085,0.00004031,0.00004263,-0.
 00003522,-0.00001246,0.00000719,-0.00003685,-0.00001903,-0.00002702,-0
 .00001994,0.00020417,-0.00058724,0.00019607,-0.00352542,-0.00280088,0.
 00028322,-0.00000294,-0.00009566,0.00004822,0.00017716,-0.00001286,0.0
 0001128,0.00010149,0.00006216,0.00000223,-0.00019278,0.00010012,-0.000
 17274,-0.00001513,0.00000650,0.00003258,0.00026954,-0.00015413,-0.0002
 6836,-0.00000292,0.00002936,-0.00005099,0.00856160,0.00017651,0.002150
 62,0.00010214,-0.00005536,-0.00009174,-0.00008026,-0.00016250,-0.00001
 907,-0.00001742,-0.00000855,0.00013868,-0.00000593,0.00001773,-0.00001
 636,0.00001829,0.00008982,-0.00004998,-0.00121341,0.00222602,-0.002057
 19,-0.01365255,-0.00908414,-0.00000910,0.00000512,-0.00015272,0.000056
 47,0.00011072,0.00000418,0.00007680,-0.00010054,-0.00007692,0.00012330
 ,0.00005051,-0.00005615,0.00007150,-0.00000521,-0.00010010,0.00007896,
 0.00009800,0.00105198,0.00008653,0.00003925,0.00005333,0.00002715,0.00
 003973,-0.00000001,0.00004497,0.00154330,-0.00256850,0.00070100,0.0001
 8656,-0.00112503,-0.00067658,0.00009606,-0.00004243,0.00001847,-0.0002
 7262,-0.00019919,-0.00007465,0.00007846,0.00002943,-0.00006290,-0.0001
 2572,-0.00001446,-0.00011656,0.00007758,0.00032537,-0.00102298,0.00026
 905,0.00002265,0.00038064,-0.00019470,-0.00003869,-0.00006029,-0.00007
 828,-0.00000433,0.00004216,-0.00058538,-0.00025321,-0.00075365,-0.0047
 1729,0.00176329,0.00226118,0.00004589,-0.00013853,0.00006730,-0.000005
 49,0.00003106,-0.00003433,-0.00002044,0.00009105,-0.00000621,-0.000059
 39,-0.00021669,-0.00007637,-0.00008775,-0.00007068,0.00022606,0.052493
 94,0.02685422,0.05646662\\0.00000585,0.00000025,0.00000373,-0.00000662
 ,-0.00000170,-0.00000669,0.00000156,0.00000204,0.00000078,0.00000052,-
 0.00000331,-0.00000305,0.00000420,0.00000180,0.00000255,-0.00001639,0.
 00001920,-0.00001879,0.00000293,0.00000214,-0.00000036,0.00001482,-0.0
 0000909,0.00000913,0.00000320,-0.00000238,-0.00000019,-0.00000051,-0.0
 0000444,0.00001521,0.00000060,-0.00000084,-0.00000037,0.00000242,0.000
 00171,-0.00000231,0.00000825,-0.00000759,-0.00000476,0.00000150,0.0000
 0744,0.00000542,-0.00000808,-0.00000456,0.00000489,0.00000035,-0.00000
 364,-0.00000119,-0.00000841,-0.00000789,-0.00000667,0.00000086,0.00000
 452,0.00000133,-0.00000489,0.00000031,0.00000334,0.00003493,-0.0000064
 3,0.00002915,-0.00000041,0.00000029,-0.00000219,0.00000041,-0.00000601
 ,0.00000044,0.00001279,-0.00000098,-0.00001342,0.00001071,0.00003170,-
 0.00000390,-0.00000277,0.00000058,0.00000228,0.00000077,-0.00000347,-0
 .00000242,0.00000045,-0.00001141,-0.00000752,0.00000605,-0.00000648,-0
 .00001254,-0.00000010,-0.00001976,0.00000050,-0.00000051,-0.00000128,-
 0.00000044,-0.00000096,0.00000570,-0.00000153,-0.00000057,-0.00000103,
 -0.00000260,0.00000124,0.00000126,-0.00000051,-0.00000140,-0.00000044,
 0.00000060,0.00000247,-0.00000373,0.00000171,-0.00000309,0.00000211,-0
 .00000148,-0.00002388,0.00000306,-0.00002627,-0.00000874,-0.00000720,0
 .00000715,-0.00000233,0.00000310,-0.00000060,0.00000846,0.00000139,0.0
 0000267,0.00000123,0.00000059,0.00000012,-0.00000412,-0.00000150,-0.00
 000211,0.00002448,0.00002953,-0.00000326,-0.00006243,-0.00001300,-0.00
 000923,-0.00000151,0.00000191,-0.00000267,-0.00000180,0.00000134,0.000
 00151,0.00000008,-0.00000037,-0.00000164,0.00000148,-0.00000047,-0.000
 00436,0.00000060,-0.00000137,-0.00000101,-0.00001048,-0.00000859,0.000
 01399,0.00000094,-0.00000257,-0.00000048,-0.00000053,0.00000638,0.0000
 0410,0.00001886,0.00000694,-0.00000853,-0.00000919,-0.00000747,0.00000
 988,-0.00000620,0.00000253,-0.00000562,-0.00000207,-0.00000001,-0.0000
 0011,0.00000417,0.00000154,-0.00000942,-0.00000037,-0.00000577,-0.0000
 0859,-0.00000070,-0.00000173,0.00000954,0.00001160,-0.00000189,-0.0000
 0631,-0.00000317,-0.00000071,-0.00000431,-0.00000124,-0.00000157,-0.00
 000164,0.00000501,-0.00000502,0.00000978,0.00000201,0.00000071,-0.0000
 0329,0.00000020,-0.00000119,-0.00000080,-0.00001244,-0.00000308,0.0000
 2041,0.00000321,0.00000260,0.00000489,0.00000637,0.00000095,-0.0000113
 5,0.00003388,0.00000821,-0.00002106,-0.00001004,-0.00001937,0.00001066
 ,-0.00000343,0.00000099,0.00000367,0.00000269,-0.00000264,-0.00000358,
 -0.00000074,-0.00000187,0.00000284,-0.00000782,0.00000533,0.00000031,-
 0.00000305,-0.00000844,-0.00000482,-0.00000200,-0.00000239,-0.00000320
 ,-0.00000239,-0.00000532,-0.00000194,0.00000277,0.00001062,0.00002363,
 -0.00001033,-0.00000147,0.00000066,-0.00000817,0.00000788,-0.00000686,
 -0.00000707,0.00000708,-0.00001531,0.00000485,0.00000419,-0.00000558,-
 0.00000097,-0.00000021,-0.00000201,0.00000226,-0.00000127,0.00000308,0
 .00000170,0.00000303,0.00001199,0.00000788,0.00000870,0.00000489,-0.00
 000844,-0.00000269,-0.00001339,-0.00000070,-0.00000073,0.00000057,-0.0
 0000630,-0.00000088,0.00000035,0.00000083,-0.00000053,0.00000097,-0.00
 000011,-0.00000131,0.00000147,-0.00000110,-0.00000053,0.00000080,-0.00
 001064,-0.00000305,0.00000478,-0.00000048,0.00000290,-0.00000405,-0.00
 000131,-0.00000183,0.00000936,0.00000800,0.00000996,0.00000825,-0.0000
 0229,0.00000309,-0.00000270,0.00001631,-0.00000724,0.00000186,-0.00000
 280,-0.00000149,-0.00000431,-0.00000264,0.00000102,0.00000327,0.000015
 79,0.00000767,0.00001295,0.00000327,0.00000544,-0.00000896,0.00000200,
 0.00000283,0.00000146,0.00000165,0.00000047,0.00000360,0.00000073,0.00
 000284,0.00000112,0.00000017,0.00000150,0.00000192,0.00000106,0.000000
 30,0.00000085,0.00001206,-0.00001374,0.00000010,0.00000181,-0.00000159
 ,-0.00000113,-0.00000058,-0.00000049,0.00000014,0.00000502,-0.00000599
 ,0.00000757,0.00000007,-0.00000036,0.00000228,-0.00000736,0.00000069,0
 .00000327,-0.00000047,0.00000093,0.00000003,-0.00000550,-0.00000016,0.
 00000782,0.00000459,0.00000296,-0.00000120,-0.00000738,-0.00000363,0.0
 0000114,0.00000096,0.00000715,0.00000016,-0.00000044,0.00000330,0.0000
 0019,-0.00000121,0.00000307,0.00000152,-0.00000785,0.00000098,0.000001
 39,0.00000013,0.00000283,-0.00000371,0.00000151,-0.00000394,-0.0000012
 5,0.00000489,0.00000815,-0.00000755,-0.00000058,-0.00000364,0.00000035
 ,0.00000430,-0.00000046,-0.00000107,0.00000706,0.00001057,0.00000833,-
 0.00002377,-0.00001107,0.00000355\\\@


 Age does not diminish the extreme disappointment of
 having a scoop of ice cream fall from the cone.
 -- Jim Fiebig
 Job cpu time:      22 days  9 hours 32 minutes 24.9 seconds.
 Elapsed time:       1 days  3 hours  4 minutes  1.7 seconds.
 File lengths (MBytes):  RWF=  33951 Int=      0 D2E=      0 Chk=    152 Scr=      1
 Normal termination of Gaussian 16 at Fri Jul 17 19:50:04 2020.
