 Entering Gaussian System, Link 0=g16
 Initial command:
 /cluster/chemistry/gaussian/g16/l1.exe "/scratch/js1212.750810/scratch/Gau-2690.inp" -scrdir="/scratch/js1212.750810/scratch/"
 Entering Link 1 = /cluster/chemistry/gaussian/g16/l1.exe PID=      2691.
  
 Copyright (c) 1988,1990,1992,1993,1995,1998,2003,2009,2016,
            Gaussian, Inc.  All Rights Reserved.
  
 This is part of the Gaussian(R) 16 program.  It is based on
 the Gaussian(R) 09 system (copyright 2009, Gaussian, Inc.),
 the Gaussian(R) 03 system (copyright 2003, Gaussian, Inc.),
 the Gaussian(R) 98 system (copyright 1998, Gaussian, Inc.),
 the Gaussian(R) 94 system (copyright 1995, Gaussian, Inc.),
 the Gaussian 92(TM) system (copyright 1992, Gaussian, Inc.),
 the Gaussian 90(TM) system (copyright 1990, Gaussian, Inc.),
 the Gaussian 88(TM) system (copyright 1988, Gaussian, Inc.),
 the Gaussian 86(TM) system (copyright 1986, Carnegie Mellon
 University), and the Gaussian 82(TM) system (copyright 1983,
 Carnegie Mellon University). Gaussian is a federally registered
 trademark of Gaussian, Inc.
  
 This software contains proprietary and confidential information,
 including trade secrets, belonging to Gaussian, Inc.
  
 This software is provided under written license and may be
 used, copied, transmitted, or stored only in accord with that
 written license.
  
 The following legend is applicable only to US Government
 contracts under FAR:
  
                    RESTRICTED RIGHTS LEGEND
  
 Use, reproduction and disclosure by the US Government is
 subject to restrictions as set forth in subparagraphs (a)
 and (c) of the Commercial Computer Software - Restricted
 Rights clause in FAR 52.227-19.
  
 Gaussian, Inc.
 340 Quinnipiac St., Bldg. 40, Wallingford CT 06492
  
  
 ---------------------------------------------------------------
 Warning -- This program may not be used in any manner that
 competes with the business of Gaussian, Inc. or will provide
 assistance to any competitor of Gaussian, Inc.  The licensee
 of this program is prohibited from giving any competitor of
 Gaussian, Inc. access to this program.  By using this program,
 the user acknowledges that Gaussian, Inc. is engaged in the
 business of creating and licensing software in the field of
 computational chemistry and represents and warrants to the
 licensee that it is not a competitor of Gaussian, Inc. and that
 it will not use this program in any manner prohibited above.
 ---------------------------------------------------------------
  

 Cite this work as:
 Gaussian 16, Revision A.03,
 M. J. Frisch, G. W. Trucks, H. B. Schlegel, G. E. Scuseria, 
 M. A. Robb, J. R. Cheeseman, G. Scalmani, V. Barone, 
 G. A. Petersson, H. Nakatsuji, X. Li, M. Caricato, A. V. Marenich, 
 J. Bloino, B. G. Janesko, R. Gomperts, B. Mennucci, H. P. Hratchian, 
 J. V. Ortiz, A. F. Izmaylov, J. L. Sonnenberg, D. Williams-Young, 
 F. Ding, F. Lipparini, F. Egidi, J. Goings, B. Peng, A. Petrone, 
 T. Henderson, D. Ranasinghe, V. G. Zakrzewski, J. Gao, N. Rega, 
 G. Zheng, W. Liang, M. Hada, M. Ehara, K. Toyota, R. Fukuda, 
 J. Hasegawa, M. Ishida, T. Nakajima, Y. Honda, O. Kitao, H. Nakai, 
 T. Vreven, K. Throssell, J. A. Montgomery, Jr., J. E. Peralta, 
 F. Ogliaro, M. J. Bearpark, J. J. Heyd, E. N. Brothers, K. N. Kudin, 
 V. N. Staroverov, T. A. Keith, R. Kobayashi, J. Normand, 
 K. Raghavachari, A. P. Rendell, J. C. Burant, S. S. Iyengar, 
 J. Tomasi, M. Cossi, J. M. Millam, M. Klene, C. Adamo, R. Cammi, 
 J. W. Ochterski, R. L. Martin, K. Morokuma, O. Farkas, 
 J. B. Foresman, and D. J. Fox, Gaussian, Inc., Wallingford CT, 2016.
 
 ******************************************
 Gaussian 16:  ES64L-G16RevA.03 25-Dec-2016
                22-Jun-2020 
 ******************************************
 %rwf=/scratch/js1212.750810/H-Trans-Mono-D-0-180-GPOF.rwf
 %nosave
 %nprocshared=20
 Will use up to   20 processors via shared memory.
 %mem=3000MB
 %chk=/scratch/js1212.750810/H-Trans-Mono-D-0-180-GPOF.chk
 ---------------------------------------------------
 # opt freq genecp pbe1pbe EmpiricalDispersion=GD3BJ
 ---------------------------------------------------
 1/18=20,19=15,26=3,38=1/1,3;
 2/9=110,12=2,17=6,18=5,40=1/2;
 3/5=7,11=2,16=1,17=8,25=1,30=1,71=1,74=-13,124=41/1,2,3;
 4//1;
 5/5=2,38=5/2;
 6/7=2,8=2,9=2,10=2,28=1/1;
 7//1,2,3,16;
 1/18=20,19=15,26=3/3(2);
 2/9=110/2;
 99//99;
 2/9=110/2;
 3/5=7,6=1,11=2,16=1,17=8,25=1,30=1,71=1,74=-13,82=7,124=41/1,2,3;
 4/5=5,16=3,69=1/1;
 5/5=2,38=5/2;
 7//1,2,3,16;
 1/18=20,19=15,26=3/3(-5);
 2/9=110/2;
 6/7=2,8=2,9=2,10=2,19=2,28=1/1;
 99/9=1/99;
 -------------------
 Title Card Required
 -------------------
 Symbolic Z-matrix:
 Charge =  0 Multiplicity = 2
 H                    -3.72978  -3.39817   1.44392 
 C                    -3.35947  -2.72213   0.65918 
 H                    -4.0487   -2.80104  -0.19512 
 H                    -2.35344  -3.05845   0.37156 
 H                     2.38429  -1.2265    2.41552 
 O                    -0.30726   0.21091   1.90053 
 H                     3.26934  -2.48813   0.6064 
 O                    -0.19508  -1.0499    2.61313 
 C                    -3.28043  -1.32044   1.22522 
 H                     3.32976  -0.01605   3.31378 
 H                    -4.28464  -0.95577   1.5181 
 C                     3.09489  -0.39355   2.30461 
 H                     1.88212  -2.78828  -0.45361 
 H                     4.02288  -0.79899   1.88037 
 H                    -2.65277  -1.33073   2.12634 
 C                     2.92761  -2.44646  -0.43648 
 H                     3.54519  -3.15027  -1.01868 
 H                    -2.22042   0.85638   1.93984 
 Ru                   -0.43039  -0.57646   0.00155 
 H                     0.56813   0.58526   2.48768 
 N                    -2.66169  -0.33989   0.30565 
 C                    -2.6724    0.99456   0.93974 
 C                     2.49936   0.742     1.47016 
 H                     1.72708   1.73069   3.22251 
 H                     4.88358  -0.53363   0.1001 
 C                     1.33442   1.34323   2.26705 
 C                     3.06232  -1.04159  -1.03526 
 P                     1.77159   0.03837  -0.15543 
 H                    -3.69874   1.37362   1.08697 
 C                     4.50215  -0.5401   -0.92896 
 H                    -3.16317  -1.25785  -1.50079 
 H                    -5.40939  -0.71493  -0.45432 
 H                     5.15315  -1.21253  -1.51265 
 C                    -3.3339   -0.28888  -1.01567 
 H                     3.93037   2.17347   2.21582 
 C                    -0.53153  -1.38638  -1.6198 
 C                     3.53605   1.84239   1.23993 
 H                     1.67529  -1.41654  -2.71034 
 C                     2.71098  -1.10893  -2.52523 
 H                     4.3901    1.51693   0.63352 
 H                     3.36666  -1.85823  -2.99873 
 C                    -1.83184   1.97076   0.18161 
 N                    -0.66138   1.42044  -0.27466 
 C                    -4.81976   0.03413  -1.00322 
 H                     0.85559   2.17915   1.73786 
 H                    -2.78964   0.45685  -1.61333 
 H                     4.61797   0.47044  -1.35009 
 H                    -5.03571   1.02463  -0.57555 
 C                     1.53684   1.53943  -1.2482 
 H                    -5.1856    0.04416  -2.04081 
 H                     3.08407   2.72289   0.75999 
 C                     0.29121   2.2478   -0.81888 
 C                    -2.10038   3.31891   0.05699 
 H                     2.89238  -0.15163  -3.03641 
 H                    -3.04661   3.71211   0.43341 
 H                     1.36625   1.10351  -2.24748 
 H                     2.40349   2.21174  -1.31429 
 C                     0.07382   3.60683  -0.93779 
 C                    -1.14204   4.16813  -0.51378 
 H                     0.85596   4.23398  -1.36929 
 H                    -1.32768   5.2375   -0.61131 
 O                    -0.64608  -1.80931  -2.70343 
 H                    -1.0386   -1.07791   3.08965 
 

 GradGradGradGradGradGradGradGradGradGradGradGradGradGradGradGradGradGrad
 Berny optimization.
 Initialization pass.
                           ----------------------------
                           !    Initial Parameters    !
                           ! (Angstroms and Degrees)  !
 --------------------------                            --------------------------
 ! Name  Definition              Value          Derivative Info.                !
 --------------------------------------------------------------------------------
 ! R1    R(1,2)                  1.1            estimate D2E/DX2                !
 ! R2    R(2,3)                  1.1005         estimate D2E/DX2                !
 ! R3    R(2,4)                  1.0991         estimate D2E/DX2                !
 ! R4    R(2,9)                  1.5137         estimate D2E/DX2                !
 ! R5    R(5,12)                 1.1005         estimate D2E/DX2                !
 ! R6    R(6,8)                  1.4526         estimate D2E/DX2                !
 ! R7    R(6,19)                 2.0594         estimate D2E/DX2                !
 ! R8    R(6,20)                 1.1186         estimate D2E/DX2                !
 ! R9    R(7,16)                 1.0982         estimate D2E/DX2                !
 ! R10   R(8,63)                 0.9692         estimate D2E/DX2                !
 ! R11   R(9,11)                 1.1078         estimate D2E/DX2                !
 ! R12   R(9,15)                 1.0982         estimate D2E/DX2                !
 ! R13   R(9,21)                 1.4798         estimate D2E/DX2                !
 ! R14   R(10,12)                1.1028         estimate D2E/DX2                !
 ! R15   R(12,14)                1.098          estimate D2E/DX2                !
 ! R16   R(12,23)                1.5298         estimate D2E/DX2                !
 ! R17   R(13,16)                1.1001         estimate D2E/DX2                !
 ! R18   R(16,17)                1.1026         estimate D2E/DX2                !
 ! R19   R(16,27)                1.5331         estimate D2E/DX2                !
 ! R20   R(18,22)                1.1062         estimate D2E/DX2                !
 ! R21   R(19,21)                2.2643         estimate D2E/DX2                !
 ! R22   R(19,28)                2.2916         estimate D2E/DX2                !
 ! R23   R(19,36)                1.8152         estimate D2E/DX2                !
 ! R24   R(19,43)                2.0291         estimate D2E/DX2                !
 ! R25   R(20,26)                1.1002         estimate D2E/DX2                !
 ! R26   R(21,22)                1.4775         estimate D2E/DX2                !
 ! R27   R(21,34)                1.4834         estimate D2E/DX2                !
 ! R28   R(22,29)                1.104          estimate D2E/DX2                !
 ! R29   R(22,42)                1.4947         estimate D2E/DX2                !
 ! R30   R(23,26)                1.5341         estimate D2E/DX2                !
 ! R31   R(23,28)                1.915          estimate D2E/DX2                !
 ! R32   R(23,37)                1.5292         estimate D2E/DX2                !
 ! R33   R(24,26)                1.1033         estimate D2E/DX2                !
 ! R34   R(25,30)                1.0975         estimate D2E/DX2                !
 ! R35   R(26,45)                1.0991         estimate D2E/DX2                !
 ! R36   R(27,28)                1.8991         estimate D2E/DX2                !
 ! R37   R(27,30)                1.5284         estimate D2E/DX2                !
 ! R38   R(27,39)                1.5323         estimate D2E/DX2                !
 ! R39   R(28,49)                1.8715         estimate D2E/DX2                !
 ! R40   R(30,33)                1.103          estimate D2E/DX2                !
 ! R41   R(30,47)                1.1009         estimate D2E/DX2                !
 ! R42   R(31,34)                1.097          estimate D2E/DX2                !
 ! R43   R(32,44)                1.1            estimate D2E/DX2                !
 ! R44   R(34,44)                1.5206         estimate D2E/DX2                !
 ! R45   R(34,46)                1.0998         estimate D2E/DX2                !
 ! R46   R(35,37)                1.1034         estimate D2E/DX2                !
 ! R47   R(36,62)                1.1689         estimate D2E/DX2                !
 ! R48   R(37,40)                1.0968         estimate D2E/DX2                !
 ! R49   R(37,51)                1.1            estimate D2E/DX2                !
 ! R50   R(38,39)                1.0961         estimate D2E/DX2                !
 ! R51   R(39,41)                1.1025         estimate D2E/DX2                !
 ! R52   R(39,54)                1.1003         estimate D2E/DX2                !
 ! R53   R(42,43)                1.3715         estimate D2E/DX2                !
 ! R54   R(42,53)                1.3803         estimate D2E/DX2                !
 ! R55   R(43,52)                1.3741         estimate D2E/DX2                !
 ! R56   R(44,48)                1.1003         estimate D2E/DX2                !
 ! R57   R(44,50)                1.1002         estimate D2E/DX2                !
 ! R58   R(49,52)                1.4959         estimate D2E/DX2                !
 ! R59   R(49,56)                1.1035         estimate D2E/DX2                !
 ! R60   R(49,57)                1.0988         estimate D2E/DX2                !
 ! R61   R(52,58)                1.3814         estimate D2E/DX2                !
 ! R62   R(53,55)                1.0916         estimate D2E/DX2                !
 ! R63   R(53,59)                1.4019         estimate D2E/DX2                !
 ! R64   R(58,59)                1.4047         estimate D2E/DX2                !
 ! R65   R(58,60)                1.0914         estimate D2E/DX2                !
 ! R66   R(59,61)                1.0897         estimate D2E/DX2                !
 ! A1    A(1,2,3)              107.3915         estimate D2E/DX2                !
 ! A2    A(1,2,4)              107.8653         estimate D2E/DX2                !
 ! A3    A(1,2,9)              108.6573         estimate D2E/DX2                !
 ! A4    A(3,2,4)              110.3763         estimate D2E/DX2                !
 ! A5    A(3,2,9)              112.916          estimate D2E/DX2                !
 ! A6    A(4,2,9)              109.4765         estimate D2E/DX2                !
 ! A7    A(8,6,19)              97.1878         estimate D2E/DX2                !
 ! A8    A(8,6,20)              88.4264         estimate D2E/DX2                !
 ! A9    A(19,6,20)            131.2054         estimate D2E/DX2                !
 ! A10   A(6,8,63)             101.4822         estimate D2E/DX2                !
 ! A11   A(2,9,11)             110.8762         estimate D2E/DX2                !
 ! A12   A(2,9,15)             109.147          estimate D2E/DX2                !
 ! A13   A(2,9,21)             113.7677         estimate D2E/DX2                !
 ! A14   A(11,9,15)            107.7124         estimate D2E/DX2                !
 ! A15   A(11,9,21)            108.9767         estimate D2E/DX2                !
 ! A16   A(15,9,21)            106.0885         estimate D2E/DX2                !
 ! A17   A(5,12,10)            107.722          estimate D2E/DX2                !
 ! A18   A(5,12,14)            107.7702         estimate D2E/DX2                !
 ! A19   A(5,12,23)            111.4339         estimate D2E/DX2                !
 ! A20   A(10,12,14)           107.457          estimate D2E/DX2                !
 ! A21   A(10,12,23)           109.1455         estimate D2E/DX2                !
 ! A22   A(14,12,23)           113.1007         estimate D2E/DX2                !
 ! A23   A(7,16,13)            107.3807         estimate D2E/DX2                !
 ! A24   A(7,16,17)            107.6323         estimate D2E/DX2                !
 ! A25   A(7,16,27)            112.2294         estimate D2E/DX2                !
 ! A26   A(13,16,17)           109.0114         estimate D2E/DX2                !
 ! A27   A(13,16,27)           111.233          estimate D2E/DX2                !
 ! A28   A(17,16,27)           109.2378         estimate D2E/DX2                !
 ! A29   A(6,19,21)             83.9806         estimate D2E/DX2                !
 ! A30   A(6,19,28)             84.4415         estimate D2E/DX2                !
 ! A31   A(6,19,43)             75.8813         estimate D2E/DX2                !
 ! A32   A(21,19,28)           158.1334         estimate D2E/DX2                !
 ! A33   A(21,19,36)            96.4115         estimate D2E/DX2                !
 ! A34   A(21,19,43)            78.655          estimate D2E/DX2                !
 ! A35   A(28,19,36)            96.4343         estimate D2E/DX2                !
 ! A36   A(28,19,43)            80.5621         estimate D2E/DX2                !
 ! A37   A(36,19,43)           108.1301         estimate D2E/DX2                !
 ! A38   A(6,20,26)            132.0976         estimate D2E/DX2                !
 ! A39   A(9,21,19)            115.2294         estimate D2E/DX2                !
 ! A40   A(9,21,22)            109.1926         estimate D2E/DX2                !
 ! A41   A(9,21,34)            112.7573         estimate D2E/DX2                !
 ! A42   A(19,21,22)            99.1572         estimate D2E/DX2                !
 ! A43   A(19,21,34)           109.3004         estimate D2E/DX2                !
 ! A44   A(22,21,34)           110.3616         estimate D2E/DX2                !
 ! A45   A(18,22,21)           105.7973         estimate D2E/DX2                !
 ! A46   A(18,22,29)           107.5891         estimate D2E/DX2                !
 ! A47   A(18,22,42)           108.0818         estimate D2E/DX2                !
 ! A48   A(21,22,29)           111.9686         estimate D2E/DX2                !
 ! A49   A(21,22,42)           111.5994         estimate D2E/DX2                !
 ! A50   A(29,22,42)           111.4814         estimate D2E/DX2                !
 ! A51   A(12,23,26)           107.6475         estimate D2E/DX2                !
 ! A52   A(12,23,28)           109.7684         estimate D2E/DX2                !
 ! A53   A(12,23,37)           110.63           estimate D2E/DX2                !
 ! A54   A(26,23,28)           107.2385         estimate D2E/DX2                !
 ! A55   A(26,23,37)           108.1177         estimate D2E/DX2                !
 ! A56   A(28,23,37)           113.2172         estimate D2E/DX2                !
 ! A57   A(20,26,23)           111.2883         estimate D2E/DX2                !
 ! A58   A(20,26,24)           108.4317         estimate D2E/DX2                !
 ! A59   A(20,26,45)           108.4869         estimate D2E/DX2                !
 ! A60   A(23,26,24)           108.495          estimate D2E/DX2                !
 ! A61   A(23,26,45)           112.2572         estimate D2E/DX2                !
 ! A62   A(24,26,45)           107.7531         estimate D2E/DX2                !
 ! A63   A(16,27,28)           106.2871         estimate D2E/DX2                !
 ! A64   A(16,27,30)           110.8728         estimate D2E/DX2                !
 ! A65   A(16,27,39)           108.6243         estimate D2E/DX2                !
 ! A66   A(28,27,30)           114.9279         estimate D2E/DX2                !
 ! A67   A(28,27,39)           108.6417         estimate D2E/DX2                !
 ! A68   A(30,27,39)           107.3408         estimate D2E/DX2                !
 ! A69   A(19,28,23)           113.929          estimate D2E/DX2                !
 ! A70   A(19,28,27)           122.1579         estimate D2E/DX2                !
 ! A71   A(19,28,49)            97.7391         estimate D2E/DX2                !
 ! A72   A(23,28,27)           110.1166         estimate D2E/DX2                !
 ! A73   A(23,28,49)           104.3961         estimate D2E/DX2                !
 ! A74   A(27,28,49)           105.7152         estimate D2E/DX2                !
 ! A75   A(25,30,27)           113.2387         estimate D2E/DX2                !
 ! A76   A(25,30,33)           107.1365         estimate D2E/DX2                !
 ! A77   A(25,30,47)           108.4639         estimate D2E/DX2                !
 ! A78   A(27,30,33)           108.6128         estimate D2E/DX2                !
 ! A79   A(27,30,47)           111.9439         estimate D2E/DX2                !
 ! A80   A(33,30,47)           107.162          estimate D2E/DX2                !
 ! A81   A(21,34,31)           107.0386         estimate D2E/DX2                !
 ! A82   A(21,34,44)           116.284          estimate D2E/DX2                !
 ! A83   A(21,34,46)           106.4468         estimate D2E/DX2                !
 ! A84   A(31,34,44)           110.0798         estimate D2E/DX2                !
 ! A85   A(31,34,46)           106.3554         estimate D2E/DX2                !
 ! A86   A(44,34,46)           110.1196         estimate D2E/DX2                !
 ! A87   A(23,37,35)           108.9669         estimate D2E/DX2                !
 ! A88   A(23,37,40)           113.4266         estimate D2E/DX2                !
 ! A89   A(23,37,51)           111.2927         estimate D2E/DX2                !
 ! A90   A(35,37,40)           107.4428         estimate D2E/DX2                !
 ! A91   A(35,37,51)           107.0114         estimate D2E/DX2                !
 ! A92   A(40,37,51)           108.4359         estimate D2E/DX2                !
 ! A93   A(27,39,38)           113.1525         estimate D2E/DX2                !
 ! A94   A(27,39,41)           108.126          estimate D2E/DX2                !
 ! A95   A(27,39,54)           112.0683         estimate D2E/DX2                !
 ! A96   A(38,39,41)           107.377          estimate D2E/DX2                !
 ! A97   A(38,39,54)           108.7522         estimate D2E/DX2                !
 ! A98   A(41,39,54)           107.0813         estimate D2E/DX2                !
 ! A99   A(22,42,43)           112.7426         estimate D2E/DX2                !
 ! A100  A(22,42,53)           125.0488         estimate D2E/DX2                !
 ! A101  A(43,42,53)           121.8648         estimate D2E/DX2                !
 ! A102  A(19,43,42)           116.5355         estimate D2E/DX2                !
 ! A103  A(19,43,52)           124.5798         estimate D2E/DX2                !
 ! A104  A(42,43,52)           118.8024         estimate D2E/DX2                !
 ! A105  A(32,44,34)           112.5323         estimate D2E/DX2                !
 ! A106  A(32,44,48)           108.2915         estimate D2E/DX2                !
 ! A107  A(32,44,50)           107.3707         estimate D2E/DX2                !
 ! A108  A(34,44,48)           112.7176         estimate D2E/DX2                !
 ! A109  A(34,44,50)           108.61           estimate D2E/DX2                !
 ! A110  A(48,44,50)           107.043          estimate D2E/DX2                !
 ! A111  A(28,49,52)           108.4625         estimate D2E/DX2                !
 ! A112  A(28,49,56)           103.3741         estimate D2E/DX2                !
 ! A113  A(28,49,57)           115.2726         estimate D2E/DX2                !
 ! A114  A(52,49,56)           108.5562         estimate D2E/DX2                !
 ! A115  A(52,49,57)           112.5989         estimate D2E/DX2                !
 ! A116  A(56,49,57)           108.0085         estimate D2E/DX2                !
 ! A117  A(43,52,49)           113.942          estimate D2E/DX2                !
 ! A118  A(43,52,58)           121.1545         estimate D2E/DX2                !
 ! A119  A(49,52,58)           124.9036         estimate D2E/DX2                !
 ! A120  A(42,53,55)           119.2961         estimate D2E/DX2                !
 ! A121  A(42,53,59)           119.6975         estimate D2E/DX2                !
 ! A122  A(55,53,59)           120.9802         estimate D2E/DX2                !
 ! A123  A(52,58,59)           120.221          estimate D2E/DX2                !
 ! A124  A(52,58,60)           119.1139         estimate D2E/DX2                !
 ! A125  A(59,58,60)           120.6643         estimate D2E/DX2                !
 ! A126  A(53,59,58)           118.1993         estimate D2E/DX2                !
 ! A127  A(53,59,61)           120.9588         estimate D2E/DX2                !
 ! A128  A(58,59,61)           120.8344         estimate D2E/DX2                !
 ! A129  L(6,19,36,21,-1)      180.3921         estimate D2E/DX2                !
 ! A130  L(19,36,62,1,-1)      181.7425         estimate D2E/DX2                !
 ! A131  L(6,19,36,21,-2)      184.0281         estimate D2E/DX2                !
 ! A132  L(19,36,62,1,-2)      174.1401         estimate D2E/DX2                !
 ! D1    D(1,2,9,11)           -62.7402         estimate D2E/DX2                !
 ! D2    D(1,2,9,15)            55.756          estimate D2E/DX2                !
 ! D3    D(1,2,9,21)           174.0135         estimate D2E/DX2                !
 ! D4    D(3,2,9,11)            56.2887         estimate D2E/DX2                !
 ! D5    D(3,2,9,15)           174.7848         estimate D2E/DX2                !
 ! D6    D(3,2,9,21)           -66.9576         estimate D2E/DX2                !
 ! D7    D(4,2,9,11)           179.6879         estimate D2E/DX2                !
 ! D8    D(4,2,9,15)           -61.816          estimate D2E/DX2                !
 ! D9    D(4,2,9,21)            56.4415         estimate D2E/DX2                !
 ! D10   D(19,6,8,63)         -112.0722         estimate D2E/DX2                !
 ! D11   D(20,6,8,63)          116.5696         estimate D2E/DX2                !
 ! D12   D(8,6,19,21)           96.636          estimate D2E/DX2                !
 ! D13   D(8,6,19,28)         -101.9457         estimate D2E/DX2                !
 ! D14   D(8,6,19,43)          176.4151         estimate D2E/DX2                !
 ! D15   D(20,6,19,21)        -169.1412         estimate D2E/DX2                !
 ! D16   D(20,6,19,28)          -7.723          estimate D2E/DX2                !
 ! D17   D(20,6,19,43)         -89.3622         estimate D2E/DX2                !
 ! D18   D(8,6,20,26)          153.0185         estimate D2E/DX2                !
 ! D19   D(19,6,20,26)          54.8367         estimate D2E/DX2                !
 ! D20   D(2,9,21,19)          -71.1635         estimate D2E/DX2                !
 ! D21   D(2,9,21,22)          178.331          estimate D2E/DX2                !
 ! D22   D(2,9,21,34)           55.2692         estimate D2E/DX2                !
 ! D23   D(11,9,21,19)         164.56           estimate D2E/DX2                !
 ! D24   D(11,9,21,22)          54.0545         estimate D2E/DX2                !
 ! D25   D(11,9,21,34)         -69.0074         estimate D2E/DX2                !
 ! D26   D(15,9,21,19)          48.8372         estimate D2E/DX2                !
 ! D27   D(15,9,21,22)         -61.6683         estimate D2E/DX2                !
 ! D28   D(15,9,21,34)         175.2699         estimate D2E/DX2                !
 ! D29   D(5,12,23,26)          66.2799         estimate D2E/DX2                !
 ! D30   D(5,12,23,28)         -50.1305         estimate D2E/DX2                !
 ! D31   D(5,12,23,37)        -175.7861         estimate D2E/DX2                !
 ! D32   D(10,12,23,26)        -52.5658         estimate D2E/DX2                !
 ! D33   D(10,12,23,28)       -168.9762         estimate D2E/DX2                !
 ! D34   D(10,12,23,37)         65.3682         estimate D2E/DX2                !
 ! D35   D(14,12,23,26)       -172.125          estimate D2E/DX2                !
 ! D36   D(14,12,23,28)         71.4647         estimate D2E/DX2                !
 ! D37   D(14,12,23,37)        -54.191          estimate D2E/DX2                !
 ! D38   D(7,16,27,28)         -69.3752         estimate D2E/DX2                !
 ! D39   D(7,16,27,30)          56.1705         estimate D2E/DX2                !
 ! D40   D(7,16,27,39)         173.8887         estimate D2E/DX2                !
 ! D41   D(13,16,27,28)         50.9559         estimate D2E/DX2                !
 ! D42   D(13,16,27,30)        176.5016         estimate D2E/DX2                !
 ! D43   D(13,16,27,39)        -65.7802         estimate D2E/DX2                !
 ! D44   D(17,16,27,28)        171.3365         estimate D2E/DX2                !
 ! D45   D(17,16,27,30)        -63.1178         estimate D2E/DX2                !
 ! D46   D(17,16,27,39)         54.6004         estimate D2E/DX2                !
 ! D47   D(6,19,21,9)          -73.8681         estimate D2E/DX2                !
 ! D48   D(6,19,21,22)          42.495          estimate D2E/DX2                !
 ! D49   D(6,19,21,34)         157.9546         estimate D2E/DX2                !
 ! D50   D(28,19,21,9)        -132.2496         estimate D2E/DX2                !
 ! D51   D(28,19,21,22)        -15.8865         estimate D2E/DX2                !
 ! D52   D(28,19,21,34)         99.5732         estimate D2E/DX2                !
 ! D53   D(36,19,21,9)         102.1038         estimate D2E/DX2                !
 ! D54   D(36,19,21,22)       -141.5331         estimate D2E/DX2                !
 ! D55   D(36,19,21,34)        -26.0734         estimate D2E/DX2                !
 ! D56   D(43,19,21,9)        -150.629          estimate D2E/DX2                !
 ! D57   D(43,19,21,22)        -34.2659         estimate D2E/DX2                !
 ! D58   D(43,19,21,34)         81.1938         estimate D2E/DX2                !
 ! D59   D(6,19,28,23)           4.7382         estimate D2E/DX2                !
 ! D60   D(6,19,28,27)         141.0778         estimate D2E/DX2                !
 ! D61   D(6,19,28,49)        -104.8227         estimate D2E/DX2                !
 ! D62   D(21,19,28,23)         63.0439         estimate D2E/DX2                !
 ! D63   D(21,19,28,27)       -160.6166         estimate D2E/DX2                !
 ! D64   D(21,19,28,49)        -46.5171         estimate D2E/DX2                !
 ! D65   D(36,19,28,23)       -171.3131         estimate D2E/DX2                !
 ! D66   D(36,19,28,27)        -34.9736         estimate D2E/DX2                !
 ! D67   D(36,19,28,49)         79.1259         estimate D2E/DX2                !
 ! D68   D(43,19,28,23)         81.3074         estimate D2E/DX2                !
 ! D69   D(43,19,28,27)       -142.353          estimate D2E/DX2                !
 ! D70   D(43,19,28,49)        -28.2535         estimate D2E/DX2                !
 ! D71   D(6,19,43,42)         -69.7594         estimate D2E/DX2                !
 ! D72   D(6,19,43,52)         106.8909         estimate D2E/DX2                !
 ! D73   D(21,19,43,42)         16.8111         estimate D2E/DX2                !
 ! D74   D(21,19,43,52)       -166.5386         estimate D2E/DX2                !
 ! D75   D(28,19,43,42)       -156.3518         estimate D2E/DX2                !
 ! D76   D(28,19,43,52)         20.2985         estimate D2E/DX2                !
 ! D77   D(36,19,43,42)        109.9152         estimate D2E/DX2                !
 ! D78   D(36,19,43,52)        -73.4346         estimate D2E/DX2                !
 ! D79   D(6,20,26,23)         -85.6077         estimate D2E/DX2                !
 ! D80   D(6,20,26,24)         155.1358         estimate D2E/DX2                !
 ! D81   D(6,20,26,45)          38.3718         estimate D2E/DX2                !
 ! D82   D(9,21,22,18)          51.6983         estimate D2E/DX2                !
 ! D83   D(9,21,22,29)         -65.223          estimate D2E/DX2                !
 ! D84   D(9,21,22,42)         169.0164         estimate D2E/DX2                !
 ! D85   D(19,21,22,18)        -69.1834         estimate D2E/DX2                !
 ! D86   D(19,21,22,29)        173.8954         estimate D2E/DX2                !
 ! D87   D(19,21,22,42)         48.1347         estimate D2E/DX2                !
 ! D88   D(34,21,22,18)        176.1758         estimate D2E/DX2                !
 ! D89   D(34,21,22,29)         59.2545         estimate D2E/DX2                !
 ! D90   D(34,21,22,42)        -66.5061         estimate D2E/DX2                !
 ! D91   D(9,21,34,31)         -65.9899         estimate D2E/DX2                !
 ! D92   D(9,21,34,44)          57.5046         estimate D2E/DX2                !
 ! D93   D(9,21,34,46)        -179.4154         estimate D2E/DX2                !
 ! D94   D(19,21,34,31)         63.553          estimate D2E/DX2                !
 ! D95   D(19,21,34,44)       -172.9525         estimate D2E/DX2                !
 ! D96   D(19,21,34,46)        -49.8725         estimate D2E/DX2                !
 ! D97   D(22,21,34,31)        171.6022         estimate D2E/DX2                !
 ! D98   D(22,21,34,44)        -64.9033         estimate D2E/DX2                !
 ! D99   D(22,21,34,46)         58.1767         estimate D2E/DX2                !
 ! D100  D(18,22,42,43)         75.5992         estimate D2E/DX2                !
 ! D101  D(18,22,42,53)        -97.7465         estimate D2E/DX2                !
 ! D102  D(21,22,42,43)        -40.3307         estimate D2E/DX2                !
 ! D103  D(21,22,42,53)        146.3236         estimate D2E/DX2                !
 ! D104  D(29,22,42,43)       -166.3596         estimate D2E/DX2                !
 ! D105  D(29,22,42,53)         20.2947         estimate D2E/DX2                !
 ! D106  D(12,23,26,20)        -58.8202         estimate D2E/DX2                !
 ! D107  D(12,23,26,24)         60.3985         estimate D2E/DX2                !
 ! D108  D(12,23,26,45)        179.3653         estimate D2E/DX2                !
 ! D109  D(28,23,26,20)         59.2354         estimate D2E/DX2                !
 ! D110  D(28,23,26,24)        178.4541         estimate D2E/DX2                !
 ! D111  D(28,23,26,45)        -62.5792         estimate D2E/DX2                !
 ! D112  D(37,23,26,20)       -178.3653         estimate D2E/DX2                !
 ! D113  D(37,23,26,24)        -59.1466         estimate D2E/DX2                !
 ! D114  D(37,23,26,45)         59.8202         estimate D2E/DX2                !
 ! D115  D(12,23,28,19)         90.0237         estimate D2E/DX2                !
 ! D116  D(12,23,28,27)        -51.4817         estimate D2E/DX2                !
 ! D117  D(12,23,28,49)       -164.5496         estimate D2E/DX2                !
 ! D118  D(26,23,28,19)        -26.6439         estimate D2E/DX2                !
 ! D119  D(26,23,28,27)       -168.1494         estimate D2E/DX2                !
 ! D120  D(26,23,28,49)         78.7828         estimate D2E/DX2                !
 ! D121  D(37,23,28,19)       -145.813          estimate D2E/DX2                !
 ! D122  D(37,23,28,27)         72.6816         estimate D2E/DX2                !
 ! D123  D(37,23,28,49)        -40.3863         estimate D2E/DX2                !
 ! D124  D(12,23,37,35)        -54.5501         estimate D2E/DX2                !
 ! D125  D(12,23,37,40)         65.0768         estimate D2E/DX2                !
 ! D126  D(12,23,37,51)       -172.3231         estimate D2E/DX2                !
 ! D127  D(26,23,37,35)         63.096          estimate D2E/DX2                !
 ! D128  D(26,23,37,40)       -177.277          estimate D2E/DX2                !
 ! D129  D(26,23,37,51)        -54.6769         estimate D2E/DX2                !
 ! D130  D(28,23,37,35)       -178.2422         estimate D2E/DX2                !
 ! D131  D(28,23,37,40)        -58.6152         estimate D2E/DX2                !
 ! D132  D(28,23,37,51)         63.9849         estimate D2E/DX2                !
 ! D133  D(16,27,28,19)        -51.4588         estimate D2E/DX2                !
 ! D134  D(16,27,28,23)         86.3164         estimate D2E/DX2                !
 ! D135  D(16,27,28,49)       -161.4664         estimate D2E/DX2                !
 ! D136  D(30,27,28,19)       -174.4916         estimate D2E/DX2                !
 ! D137  D(30,27,28,23)        -36.7165         estimate D2E/DX2                !
 ! D138  D(30,27,28,49)         75.5007         estimate D2E/DX2                !
 ! D139  D(39,27,28,19)         65.2657         estimate D2E/DX2                !
 ! D140  D(39,27,28,23)       -156.9592         estimate D2E/DX2                !
 ! D141  D(39,27,28,49)        -44.7419         estimate D2E/DX2                !
 ! D142  D(16,27,30,25)        -56.7411         estimate D2E/DX2                !
 ! D143  D(16,27,30,33)         62.139          estimate D2E/DX2                !
 ! D144  D(16,27,30,47)       -179.738          estimate D2E/DX2                !
 ! D145  D(28,27,30,25)         63.8036         estimate D2E/DX2                !
 ! D146  D(28,27,30,33)       -177.3162         estimate D2E/DX2                !
 ! D147  D(28,27,30,47)        -59.1933         estimate D2E/DX2                !
 ! D148  D(39,27,30,25)       -175.2394         estimate D2E/DX2                !
 ! D149  D(39,27,30,33)        -56.3592         estimate D2E/DX2                !
 ! D150  D(39,27,30,47)         61.7638         estimate D2E/DX2                !
 ! D151  D(16,27,39,38)         62.6879         estimate D2E/DX2                !
 ! D152  D(16,27,39,41)        -56.1126         estimate D2E/DX2                !
 ! D153  D(16,27,39,54)       -173.9013         estimate D2E/DX2                !
 ! D154  D(28,27,39,38)        -52.5275         estimate D2E/DX2                !
 ! D155  D(28,27,39,41)       -171.3281         estimate D2E/DX2                !
 ! D156  D(28,27,39,54)         70.8832         estimate D2E/DX2                !
 ! D157  D(30,27,39,38)       -177.3705         estimate D2E/DX2                !
 ! D158  D(30,27,39,41)         63.8289         estimate D2E/DX2                !
 ! D159  D(30,27,39,54)        -53.9598         estimate D2E/DX2                !
 ! D160  D(19,28,49,52)         38.5169         estimate D2E/DX2                !
 ! D161  D(19,28,49,56)        -76.5853         estimate D2E/DX2                !
 ! D162  D(19,28,49,57)        165.7913         estimate D2E/DX2                !
 ! D163  D(23,28,49,52)        -78.7081         estimate D2E/DX2                !
 ! D164  D(23,28,49,56)        166.1897         estimate D2E/DX2                !
 ! D165  D(23,28,49,57)         48.5663         estimate D2E/DX2                !
 ! D166  D(27,28,49,52)        165.1183         estimate D2E/DX2                !
 ! D167  D(27,28,49,56)         50.016          estimate D2E/DX2                !
 ! D168  D(27,28,49,57)        -67.6074         estimate D2E/DX2                !
 ! D169  D(21,34,44,32)        -61.538          estimate D2E/DX2                !
 ! D170  D(21,34,44,48)         61.2861         estimate D2E/DX2                !
 ! D171  D(21,34,44,50)        179.7269         estimate D2E/DX2                !
 ! D172  D(31,34,44,32)         60.3657         estimate D2E/DX2                !
 ! D173  D(31,34,44,48)       -176.8102         estimate D2E/DX2                !
 ! D174  D(31,34,44,50)        -58.3695         estimate D2E/DX2                !
 ! D175  D(46,34,44,32)        177.3159         estimate D2E/DX2                !
 ! D176  D(46,34,44,48)        -59.8599         estimate D2E/DX2                !
 ! D177  D(46,34,44,50)         58.5808         estimate D2E/DX2                !
 ! D178  D(22,42,43,19)          6.0794         estimate D2E/DX2                !
 ! D179  D(22,42,43,52)       -170.7735         estimate D2E/DX2                !
 ! D180  D(53,42,43,19)        179.6661         estimate D2E/DX2                !
 ! D181  D(53,42,43,52)          2.8132         estimate D2E/DX2                !
 ! D182  D(22,42,53,55)         -7.3435         estimate D2E/DX2                !
 ! D183  D(22,42,53,59)        170.8148         estimate D2E/DX2                !
 ! D184  D(43,42,53,55)        179.8854         estimate D2E/DX2                !
 ! D185  D(43,42,53,59)         -1.9564         estimate D2E/DX2                !
 ! D186  D(19,43,52,49)          1.9192         estimate D2E/DX2                !
 ! D187  D(19,43,52,58)       -178.0376         estimate D2E/DX2                !
 ! D188  D(42,43,52,49)        178.4992         estimate D2E/DX2                !
 ! D189  D(42,43,52,58)         -1.4576         estimate D2E/DX2                !
 ! D190  D(28,49,52,43)        -29.3345         estimate D2E/DX2                !
 ! D191  D(28,49,52,58)        150.6203         estimate D2E/DX2                !
 ! D192  D(56,49,52,43)         82.3384         estimate D2E/DX2                !
 ! D193  D(56,49,52,58)        -97.7067         estimate D2E/DX2                !
 ! D194  D(57,49,52,43)       -158.1263         estimate D2E/DX2                !
 ! D195  D(57,49,52,58)         21.8286         estimate D2E/DX2                !
 ! D196  D(43,52,58,59)         -0.7112         estimate D2E/DX2                !
 ! D197  D(43,52,58,60)        179.6102         estimate D2E/DX2                !
 ! D198  D(49,52,58,59)        179.337          estimate D2E/DX2                !
 ! D199  D(49,52,58,60)         -0.3416         estimate D2E/DX2                !
 ! D200  D(42,53,59,58)         -0.2569         estimate D2E/DX2                !
 ! D201  D(42,53,59,61)       -179.2642         estimate D2E/DX2                !
 ! D202  D(55,53,59,58)        177.8696         estimate D2E/DX2                !
 ! D203  D(55,53,59,61)         -1.1377         estimate D2E/DX2                !
 ! D204  D(52,58,59,53)          1.5554         estimate D2E/DX2                !
 ! D205  D(52,58,59,61)       -179.436          estimate D2E/DX2                !
 ! D206  D(60,58,59,53)       -178.771          estimate D2E/DX2                !
 ! D207  D(60,58,59,61)          0.2376         estimate D2E/DX2                !
 --------------------------------------------------------------------------------
 Trust Radius=3.00D-01 FncErr=1.00D-07 GrdErr=1.00D-06 EigMax=2.50D+02 EigMin=1.00D-04
 Number of steps in this run=    378 maximum allowed number of steps=    378.
 GradGradGradGradGradGradGradGradGradGradGradGradGradGradGradGradGradGrad

 Stoichiometry    C20H36N2O3PRu(2)
 Framework group  C1[X(C20H36N2O3PRu)]
 Deg. of freedom   183
 Full point group                 C1      NOp   1
 Largest Abelian subgroup         C1      NOp   1
 Largest concise Abelian subgroup C1      NOp   1
                         Standard orientation:                         
 ---------------------------------------------------------------------
 Center     Atomic      Atomic             Coordinates (Angstroms)
 Number     Number       Type             X           Y           Z
 ---------------------------------------------------------------------
      1          1           0       -3.693042   -3.301870    1.907456
      2          6           0       -3.328736   -2.744163    1.032115
      3          1           0       -4.014704   -2.956281    0.198120
      4          1           0       -2.318006   -3.106850    0.797986
      5          1           0        2.392093   -0.936552    2.554311
      6          8           0       -0.315030    0.376553    1.831091
      7          1           0        3.296929   -2.439709    0.951274
      8          8           0       -0.189716   -0.764250    2.721534
      9          6           0       -3.267921   -1.273597    1.385837
     10          1           0        3.320670    0.404300    3.265531
     11          1           0       -4.277184   -0.882075    1.620999
     12          6           0        3.093001   -0.120383    2.322679
     13          1           0        1.916209   -2.909411   -0.054252
     14          1           0        4.026884   -0.572481    1.963518
     15          1           0       -2.642580   -1.143565    2.279212
     16          6           0        2.957499   -2.556074   -0.086686
     17          1           0        3.584973   -3.330294   -0.558461
     18          1           0       -2.235849    0.997420    1.773335
     19         44           0       -0.423715   -0.683044    0.068514
     20          1           0        0.554271    0.843844    2.357539
     21          7           0       -2.658478   -0.431522    0.332549
     22          6           0       -2.686785    0.981458    0.763394
     23          6           0        2.486191    0.872718    1.329719
     24          1           0        1.697522    2.098948    2.916860
     25          1           0        4.889086   -0.561428    0.164333
     26          6           0        1.312051    1.570393    2.028461
     27          6           0        3.077036   -1.253037   -0.885527
     28         15           0        1.771186   -0.071208   -0.175292
     29          1           0       -3.717960    1.365516    0.852355
     30          6           0        4.510496   -0.723856   -0.852909
     31          1           0       -3.144173   -1.611277   -1.319613
     32          1           0       -5.399481   -0.947735   -0.366373
     33          1           0        5.171017   -1.466851   -1.330745
     34          6           0       -3.327735   -0.583637   -0.982484
     35          1           0        3.898042    2.415637    1.857906
     36          6           0       -0.510881   -1.723835   -1.416118
     37          6           0        3.510293    1.939819    0.941003
     38          1           0        1.699032   -1.887197   -2.488424
     39          6           0        2.730485   -1.543104   -2.349681
     40          1           0        4.369772    1.539125    0.389823
     41          1           0        3.396309   -2.345861   -2.707213
     42          6           0       -1.855915    1.845682   -0.129377
     43          7           0       -0.677767    1.248534   -0.498691
     44          6           0       -4.817369   -0.280442   -1.018991
     45          1           0        0.824694    2.313473    1.381625
     46          1           0       -2.790820    0.072637   -1.682881
     47          1           0        4.615375    0.215074   -1.418033
     48          1           0       -5.046251    0.759489   -0.741894
     49          6           0        1.521456    1.249795   -1.477222
     50          1           0       -5.180544   -0.427616   -2.047085
     51          1           0        3.049122    2.734564    0.336345
     52          6           0        0.266331    1.998381   -1.157884
     53          6           0       -2.140181    3.157459   -0.451225
     54          1           0        2.901813   -0.669278   -2.995985
     55          1           0       -3.092030    3.590194   -0.137579
     56          1           0        1.358733    0.669571   -2.401640
     57          1           0        2.380200    1.915579   -1.640751
     58          6           0        0.033066    3.322382   -1.475641
     59          6           0       -1.190523    3.925091   -1.139890
     60          1           0        0.808816    3.888717   -1.994032
     61          1           0       -1.388643    4.966137   -1.393855
     62          8           0       -0.617499   -2.302937   -2.425830
     63          1           0       -1.034105   -0.732134    3.196252
 ---------------------------------------------------------------------
 Rotational constants (GHZ):           0.2461416           0.1556284           0.1365609
 General basis read from cards:  (5D, 7F)
 ======================================================================================================
                                       Pseudopotential Parameters
 ======================================================================================================
  Center     Atomic      Valence      Angular      Power
  Number     Number     Electrons     Momentum     of R      Exponent        Coefficient   SO-Coeffient
 ======================================================================================================
    1          1
                                   No pseudopotential on this center.
    2          6
                                   No pseudopotential on this center.
    3          1
                                   No pseudopotential on this center.
    4          1
                                   No pseudopotential on this center.
    5          1
                                   No pseudopotential on this center.
    6          8
                                   No pseudopotential on this center.
    7          1
                                   No pseudopotential on this center.
    8          8
                                   No pseudopotential on this center.
    9          6
                                   No pseudopotential on this center.
   10          1
                                   No pseudopotential on this center.
   11          1
                                   No pseudopotential on this center.
   12          6
                                   No pseudopotential on this center.
   13          1
                                   No pseudopotential on this center.
   14          1
                                   No pseudopotential on this center.
   15          1
                                   No pseudopotential on this center.
   16          6
                                   No pseudopotential on this center.
   17          1
                                   No pseudopotential on this center.
   18          1
                                   No pseudopotential on this center.
   19         44           16
                                      G and up 
                                                     2        1.0000000        0.00000000    0.00000000
                                      S - G
                                                     2       11.1052690      209.82297100    0.00000000
                                                     2        5.4147450       30.65472600    0.00000000
                                      P - G
                                                     2        9.7712710      146.33618200    0.00000000
                                                     2        5.0739910       24.12787700    0.00000000
                                      D - G
                                                     2        7.6714230       67.51589700    0.00000000
                                                     2        4.1365650        9.87010400    0.00000000
                                      F - G
                                                     2       11.3600000      -28.34061600    0.00000000
                                                     2        5.6800000       -4.94462900    0.00000000
   20          1
                                   No pseudopotential on this center.
   21          7
                                   No pseudopotential on this center.
   22          6
                                   No pseudopotential on this center.
   23          6
                                   No pseudopotential on this center.
   24          1
                                   No pseudopotential on this center.
   25          1
                                   No pseudopotential on this center.
   26          6
                                   No pseudopotential on this center.
   27          6
                                   No pseudopotential on this center.
   28         15
                                   No pseudopotential on this center.
   29          1
                                   No pseudopotential on this center.
   30          6
                                   No pseudopotential on this center.
   31          1
                                   No pseudopotential on this center.
   32          1
                                   No pseudopotential on this center.
   33          1
                                   No pseudopotential on this center.
   34          6
                                   No pseudopotential on this center.
   35          1
                                   No pseudopotential on this center.
   36          6
                                   No pseudopotential on this center.
   37          6
                                   No pseudopotential on this center.
   38          1
                                   No pseudopotential on this center.
   39          6
                                   No pseudopotential on this center.
   40          1
                                   No pseudopotential on this center.
   41          1
                                   No pseudopotential on this center.
   42          6
                                   No pseudopotential on this center.
   43          7
                                   No pseudopotential on this center.
   44          6
                                   No pseudopotential on this center.
   45          1
                                   No pseudopotential on this center.
   46          1
                                   No pseudopotential on this center.
   47          1
                                   No pseudopotential on this center.
   48          1
                                   No pseudopotential on this center.
   49          6
                                   No pseudopotential on this center.
   50          1
                                   No pseudopotential on this center.
   51          1
                                   No pseudopotential on this center.
   52          6
                                   No pseudopotential on this center.
   53          6
                                   No pseudopotential on this center.
   54          1
                                   No pseudopotential on this center.
   55          1
                                   No pseudopotential on this center.
   56          1
                                   No pseudopotential on this center.
   57          1
                                   No pseudopotential on this center.
   58          6
                                   No pseudopotential on this center.
   59          6
                                   No pseudopotential on this center.
   60          1
                                   No pseudopotential on this center.
   61          1
                                   No pseudopotential on this center.
   62          8
                                   No pseudopotential on this center.
   63          1
                                   No pseudopotential on this center.
 ======================================================================================================
 There are   613 symmetry adapted cartesian basis functions of A   symmetry.
 There are   584 symmetry adapted basis functions of A   symmetry.
   584 basis functions,  1213 primitive gaussians,   613 cartesian basis functions
   113 alpha electrons      112 beta electrons
       nuclear repulsion energy      3484.4993307835 Hartrees.
 NAtoms=   63 NActive=   63 NUniq=   63 SFac= 1.00D+00 NAtFMM=   60 NAOKFM=T Big=T
 Integral buffers will be    131072 words long.
 Raffenetti 2 integral format.
 Two-electron integral symmetry is turned on.
 Nuclear repulsion after empirical dispersion term =     3484.4003328449 Hartrees.
 One-electron integrals computed using PRISM.
   1 Symmetry operations used in ECPInt.
 ECPInt:  NShTT=   39340 NPrTT=  276277 LenC2=   36581 LenP2D=  140333.
 LDataN:  DoStor=T MaxTD1= 6 Len=  172
 Number of processors reduced to  16 by ecpmxn.
 NBasis=   584 RedAO= T EigKep=  4.26D-04  NBF=   584
 NBsUse=   584 1.00D-06 EigRej= -1.00D+00 NBFU=   584
 Defaulting to unpruned grid for atomic number  44.
 ExpMin= 1.60D-02 ExpMax= 9.48D+04 ExpMxC= 3.24D+03 IAcc=3 IRadAn=         5 AccDes= 0.00D+00
 Harris functional with IExCor= 1009 and IRadAn=       5 diagonalized for initial guess.
 HarFok:  IExCor= 1009 AccDes= 0.00D+00 IRadAn=         5 IDoV= 1 UseB2=F ITyADJ=14
 ICtDFT=  3500011 ScaDFX=  1.000000  1.000000  1.000000  1.000000
 Defaulting to unpruned grid for atomic number  44.
 FoFCou: FMM=F IPFlag=           0 FMFlag=      100000 FMFlg1=        2001
         NFxFlg=           0 DoJE=T BraDBF=F KetDBF=T FulRan=T
         wScrn=  0.000000 ICntrl=       500 IOpCl=  0 I1Cent=   200000004 NGrid=           0
         NMat0=    1 NMatS0=      1 NMatT0=    0 NMatD0=    1 NMtDS0=    0 NMtDT0=    0
 Petite list used in FoFCou.
 Initial guess <Sx>= 0.0000 <Sy>= 0.0000 <Sz>= 0.5000 <S**2>= 0.7500 S= 0.5000
 Requested convergence on RMS density matrix=1.00D-08 within 128 cycles.
 Requested convergence on MAX density matrix=1.00D-06.
 Requested convergence on             energy=1.00D-06.
 No special actions if energy rises.
 Defaulting to unpruned grid for atomic number  44.
 Defaulting to unpruned grid for atomic number  44.
 Defaulting to unpruned grid for atomic number  44.
 Defaulting to unpruned grid for atomic number  44.
 Defaulting to unpruned grid for atomic number  44.
 Defaulting to unpruned grid for atomic number  44.
 Defaulting to unpruned grid for atomic number  44.
 Defaulting to unpruned grid for atomic number  44.
 Defaulting to unpruned grid for atomic number  44.
 Defaulting to unpruned grid for atomic number  44.
 Defaulting to unpruned grid for atomic number  44.
 Defaulting to unpruned grid for atomic number  44.
 Defaulting to unpruned grid for atomic number  44.
 Defaulting to unpruned grid for atomic number  44.
 Defaulting to unpruned grid for atomic number  44.
 Defaulting to unpruned grid for atomic number  44.
 Defaulting to unpruned grid for atomic number  44.
 Defaulting to unpruned grid for atomic number  44.
 Defaulting to unpruned grid for atomic number  44.
 Defaulting to unpruned grid for atomic number  44.
 EnCoef did     4 forward-backward iterations
 Restarting incremental Fock formation.
 SCF Done:  E(UPBE1PBE) =  -1553.79780167     A.U. after   26 cycles
            NFock= 26  Conv=0.47D-08     -V/T= 2.0458
 <Sx>= 0.0000 <Sy>= 0.0000 <Sz>= 0.5000 <S**2>= 0.7586 S= 0.5043
 <L.S>= 0.000000000000E+00
 Annihilation of the first spin contaminant:
 S**2 before annihilation     0.7586,   after     0.7500

 **********************************************************************

            Population analysis using the SCF density.

 **********************************************************************

 Orbital symmetries:
 Alpha Orbitals:
       Occupied  (A) (A) (A) (A) (A) (A) (A) (A) (A) (A) (A) (A)
                 (A) (A) (A) (A) (A) (A) (A) (A) (A) (A) (A) (A)
                 (A) (A) (A) (A) (A) (A) (A) (A) (A) (A) (A) (A)
                 (A) (A) (A) (A) (A) (A) (A) (A) (A) (A) (A) (A)
                 (A) (A) (A) (A) (A) (A) (A) (A) (A) (A) (A) (A)
                 (A) (A) (A) (A) (A) (A) (A) (A) (A) (A) (A) (A)
                 (A) (A) (A) (A) (A) (A) (A) (A) (A) (A) (A) (A)
                 (A) (A) (A) (A) (A) (A) (A) (A) (A) (A) (A) (A)
                 (A) (A) (A) (A) (A) (A) (A) (A) (A) (A) (A) (A)
                 (A) (A) (A) (A) (A)
       Virtual   (A) (A) (A) (A) (A) (A) (A) (A) (A) (A) (A) (A)
                 (A) (A) (A) (A) (A) (A) (A) (A) (A) (A) (A) (A)
                 (A) (A) (A) (A) (A) (A) (A) (A) (A) (A) (A) (A)
                 (A) (A) (A) (A) (A) (A) (A) (A) (A) (A) (A) (A)
                 (A) (A) (A) (A) (A) (A) (A) (A) (A) (A) (A) (A)
                 (A) (A) (A) (A) (A) (A) (A) (A) (A) (A) (A) (A)
                 (A) (A) (A) (A) (A) (A) (A) (A) (A) (A) (A) (A)
                 (A) (A) (A) (A) (A) (A) (A) (A) (A) (A) (A) (A)
                 (A) (A) (A) (A) (A) (A) (A) (A) (A) (A) (A) (A)
                 (A) (A) (A) (A) (A) (A) (A) (A) (A) (A) (A) (A)
                 (A) (A) (A) (A) (A) (A) (A) (A) (A) (A) (A) (A)
                 (A) (A) (A) (A) (A) (A) (A) (A) (A) (A) (A) (A)
                 (A) (A) (A) (A) (A) (A) (A) (A) (A) (A) (A) (A)
                 (A) (A) (A) (A) (A) (A) (A) (A) (A) (A) (A) (A)
                 (A) (A) (A) (A) (A) (A) (A) (A) (A) (A) (A) (A)
                 (A) (A) (A) (A) (A) (A) (A) (A) (A) (A) (A) (A)
                 (A) (A) (A) (A) (A) (A) (A) (A) (A) (A) (A) (A)
                 (A) (A) (A) (A) (A) (A) (A) (A) (A) (A) (A) (A)
                 (A) (A) (A) (A) (A) (A) (A) (A) (A) (A) (A) (A)
                 (A) (A) (A) (A) (A) (A) (A) (A) (A) (A) (A) (A)
                 (A) (A) (A) (A) (A) (A) (A) (A) (A) (A) (A) (A)
                 (A) (A) (A) (A) (A) (A) (A) (A) (A) (A) (A) (A)
                 (A) (A) (A) (A) (A) (A) (A) (A) (A) (A) (A) (A)
                 (A) (A) (A) (A) (A) (A) (A) (A) (A) (A) (A) (A)
                 (A) (A) (A) (A) (A) (A) (A) (A) (A) (A) (A) (A)
                 (A) (A) (A) (A) (A) (A) (A) (A) (A) (A) (A) (A)
                 (A) (A) (A) (A) (A) (A) (A) (A) (A) (A) (A) (A)
                 (A) (A) (A) (A) (A) (A) (A) (A) (A) (A) (A) (A)
                 (A) (A) (A) (A) (A) (A) (A) (A) (A) (A) (A) (A)
                 (A) (A) (A) (A) (A) (A) (A) (A) (A) (A) (A) (A)
                 (A) (A) (A) (A) (A) (A) (A) (A) (A) (A) (A) (A)
                 (A) (A) (A) (A) (A) (A) (A) (A) (A) (A) (A) (A)
                 (A) (A) (A) (A) (A) (A) (A) (A) (A) (A) (A) (A)
                 (A) (A) (A) (A) (A) (A) (A) (A) (A) (A) (A) (A)
                 (A) (A) (A) (A) (A) (A) (A) (A) (A) (A) (A) (A)
                 (A) (A) (A) (A) (A) (A) (A) (A) (A) (A) (A) (A)
                 (A) (A) (A) (A) (A) (A) (A) (A) (A) (A) (A) (A)
                 (A) (A) (A) (A) (A) (A) (A) (A) (A) (A) (A) (A)
                 (A) (A) (A) (A) (A) (A) (A) (A) (A) (A) (A) (A)
                 (A) (A) (A)
 Beta  Orbitals:
       Occupied  (A) (A) (A) (A) (A) (A) (A) (A) (A) (A) (A) (A)
                 (A) (A) (A) (A) (A) (A) (A) (A) (A) (A) (A) (A)
                 (A) (A) (A) (A) (A) (A) (A) (A) (A) (A) (A) (A)
                 (A) (A) (A) (A) (A) (A) (A) (A) (A) (A) (A) (A)
                 (A) (A) (A) (A) (A) (A) (A) (A) (A) (A) (A) (A)
                 (A) (A) (A) (A) (A) (A) (A) (A) (A) (A) (A) (A)
                 (A) (A) (A) (A) (A) (A) (A) (A) (A) (A) (A) (A)
                 (A) (A) (A) (A) (A) (A) (A) (A) (A) (A) (A) (A)
                 (A) (A) (A) (A) (A) (A) (A) (A) (A) (A) (A) (A)
                 (A) (A) (A) (A)
       Virtual   (A) (A) (A) (A) (A) (A) (A) (A) (A) (A) (A) (A)
                 (A) (A) (A) (A) (A) (A) (A) (A) (A) (A) (A) (A)
                 (A) (A) (A) (A) (A) (A) (A) (A) (A) (A) (A) (A)
                 (A) (A) (A) (A) (A) (A) (A) (A) (A) (A) (A) (A)
                 (A) (A) (A) (A) (A) (A) (A) (A) (A) (A) (A) (A)
                 (A) (A) (A) (A) (A) (A) (A) (A) (A) (A) (A) (A)
                 (A) (A) (A) (A) (A) (A) (A) (A) (A) (A) (A) (A)
                 (A) (A) (A) (A) (A) (A) (A) (A) (A) (A) (A) (A)
                 (A) (A) (A) (A) (A) (A) (A) (A) (A) (A) (A) (A)
                 (A) (A) (A) (A) (A) (A) (A) (A) (A) (A) (A) (A)
                 (A) (A) (A) (A) (A) (A) (A) (A) (A) (A) (A) (A)
                 (A) (A) (A) (A) (A) (A) (A) (A) (A) (A) (A) (A)
                 (A) (A) (A) (A) (A) (A) (A) (A) (A) (A) (A) (A)
                 (A) (A) (A) (A) (A) (A) (A) (A) (A) (A) (A) (A)
                 (A) (A) (A) (A) (A) (A) (A) (A) (A) (A) (A) (A)
                 (A) (A) (A) (A) (A) (A) (A) (A) (A) (A) (A) (A)
                 (A) (A) (A) (A) (A) (A) (A) (A) (A) (A) (A) (A)
                 (A) (A) (A) (A) (A) (A) (A) (A) (A) (A) (A) (A)
                 (A) (A) (A) (A) (A) (A) (A) (A) (A) (A) (A) (A)
                 (A) (A) (A) (A) (A) (A) (A) (A) (A) (A) (A) (A)
                 (A) (A) (A) (A) (A) (A) (A) (A) (A) (A) (A) (A)
                 (A) (A) (A) (A) (A) (A) (A) (A) (A) (A) (A) (A)
                 (A) (A) (A) (A) (A) (A) (A) (A) (A) (A) (A) (A)
                 (A) (A) (A) (A) (A) (A) (A) (A) (A) (A) (A) (A)
                 (A) (A) (A) (A) (A) (A) (A) (A) (A) (A) (A) (A)
                 (A) (A) (A) (A) (A) (A) (A) (A) (A) (A) (A) (A)
                 (A) (A) (A) (A) (A) (A) (A) (A) (A) (A) (A) (A)
                 (A) (A) (A) (A) (A) (A) (A) (A) (A) (A) (A) (A)
                 (A) (A) (A) (A) (A) (A) (A) (A) (A) (A) (A) (A)
                 (A) (A) (A) (A) (A) (A) (A) (A) (A) (A) (A) (A)
                 (A) (A) (A) (A) (A) (A) (A) (A) (A) (A) (A) (A)
                 (A) (A) (A) (A) (A) (A) (A) (A) (A) (A) (A) (A)
                 (A) (A) (A) (A) (A) (A) (A) (A) (A) (A) (A) (A)
                 (A) (A) (A) (A) (A) (A) (A) (A) (A) (A) (A) (A)
                 (A) (A) (A) (A) (A) (A) (A) (A) (A) (A) (A) (A)
                 (A) (A) (A) (A) (A) (A) (A) (A) (A) (A) (A) (A)
                 (A) (A) (A) (A) (A) (A) (A) (A) (A) (A) (A) (A)
                 (A) (A) (A) (A) (A) (A) (A) (A) (A) (A) (A) (A)
                 (A) (A) (A) (A) (A) (A) (A) (A) (A) (A) (A) (A)
                 (A) (A) (A) (A)
 The electronic state is 2-A.
 Alpha  occ. eigenvalues --  -77.24348 -19.24734 -19.22477 -19.19935 -14.44553
 Alpha  occ. eigenvalues --  -14.44178 -10.29773 -10.29483 -10.28274 -10.27594
 Alpha  occ. eigenvalues --  -10.27367 -10.26990 -10.26706 -10.26046 -10.25877
 Alpha  occ. eigenvalues --  -10.25195 -10.24916 -10.23848 -10.23448 -10.23236
 Alpha  occ. eigenvalues --  -10.22348 -10.21784 -10.21242 -10.20679 -10.20412
 Alpha  occ. eigenvalues --  -10.13174  -6.62296  -4.75962  -4.75861  -4.75583
 Alpha  occ. eigenvalues --   -3.01908  -1.86372  -1.84897  -1.84567  -1.11538
 Alpha  occ. eigenvalues --   -1.09046  -1.00464  -0.97699  -0.88411  -0.84961
 Alpha  occ. eigenvalues --   -0.84379  -0.83543  -0.80682  -0.79687  -0.78261
 Alpha  occ. eigenvalues --   -0.74968  -0.71631  -0.70286  -0.69812  -0.68650
 Alpha  occ. eigenvalues --   -0.67620  -0.66340  -0.66185  -0.63762  -0.61787
 Alpha  occ. eigenvalues --   -0.59200  -0.55513  -0.54636  -0.54101  -0.53524
 Alpha  occ. eigenvalues --   -0.52894  -0.52175  -0.51121  -0.50398  -0.49128
 Alpha  occ. eigenvalues --   -0.48356  -0.47987  -0.46933  -0.46144  -0.45479
 Alpha  occ. eigenvalues --   -0.44975  -0.44552  -0.44319  -0.44032  -0.43596
 Alpha  occ. eigenvalues --   -0.43229  -0.43056  -0.42338  -0.41574  -0.41210
 Alpha  occ. eigenvalues --   -0.40804  -0.40389  -0.40215  -0.39893  -0.39732
 Alpha  occ. eigenvalues --   -0.39279  -0.39222  -0.38224  -0.37721  -0.37646
 Alpha  occ. eigenvalues --   -0.37137  -0.36577  -0.36427  -0.35905  -0.35764
 Alpha  occ. eigenvalues --   -0.35247  -0.34568  -0.34164  -0.33729  -0.32590
 Alpha  occ. eigenvalues --   -0.32238  -0.31809  -0.31203  -0.30474  -0.28456
 Alpha  occ. eigenvalues --   -0.27634  -0.27257  -0.26766  -0.22630  -0.20857
 Alpha  occ. eigenvalues --   -0.20456  -0.14841  -0.12380
 Alpha virt. eigenvalues --   -0.04949  -0.02269   0.00361   0.01536   0.01777
 Alpha virt. eigenvalues --    0.03363   0.04270   0.05292   0.06197   0.07135
 Alpha virt. eigenvalues --    0.07312   0.07996   0.08174   0.08781   0.09155
 Alpha virt. eigenvalues --    0.09398   0.10008   0.10542   0.10665   0.11162
 Alpha virt. eigenvalues --    0.11613   0.11657   0.12098   0.12451   0.12731
 Alpha virt. eigenvalues --    0.13307   0.13629   0.14280   0.14516   0.14697
 Alpha virt. eigenvalues --    0.15168   0.15594   0.15814   0.16488   0.16541
 Alpha virt. eigenvalues --    0.17225   0.17308   0.18040   0.18494   0.18801
 Alpha virt. eigenvalues --    0.18980   0.19157   0.19357   0.19627   0.19811
 Alpha virt. eigenvalues --    0.20195   0.21033   0.21104   0.21543   0.21820
 Alpha virt. eigenvalues --    0.21947   0.22716   0.23000   0.23819   0.24045
 Alpha virt. eigenvalues --    0.24483   0.24614   0.25278   0.25638   0.26146
 Alpha virt. eigenvalues --    0.26580   0.27061   0.27350   0.28195   0.29128
 Alpha virt. eigenvalues --    0.29638   0.30419   0.30963   0.31947   0.32784
 Alpha virt. eigenvalues --    0.33171   0.33703   0.34149   0.35095   0.36227
 Alpha virt. eigenvalues --    0.37060   0.39272   0.40241   0.41407   0.42328
 Alpha virt. eigenvalues --    0.43036   0.43983   0.44195   0.44580   0.45128
 Alpha virt. eigenvalues --    0.45651   0.45954   0.46780   0.47415   0.47823
 Alpha virt. eigenvalues --    0.48522   0.48838   0.49531   0.50907   0.51473
 Alpha virt. eigenvalues --    0.51751   0.52282   0.53073   0.53333   0.53684
 Alpha virt. eigenvalues --    0.54967   0.55281   0.56062   0.56387   0.57408
 Alpha virt. eigenvalues --    0.57955   0.58149   0.58687   0.59276   0.59456
 Alpha virt. eigenvalues --    0.60008   0.61079   0.61309   0.61721   0.62132
 Alpha virt. eigenvalues --    0.62163   0.62700   0.62791   0.63239   0.63281
 Alpha virt. eigenvalues --    0.63646   0.63998   0.64787   0.64893   0.65071
 Alpha virt. eigenvalues --    0.65734   0.66095   0.66428   0.66882   0.67173
 Alpha virt. eigenvalues --    0.67179   0.67515   0.67761   0.68124   0.68266
 Alpha virt. eigenvalues --    0.68697   0.69421   0.69530   0.70024   0.70194
 Alpha virt. eigenvalues --    0.70845   0.71065   0.71252   0.72037   0.72534
 Alpha virt. eigenvalues --    0.72797   0.73173   0.73930   0.74085   0.74681
 Alpha virt. eigenvalues --    0.74911   0.75512   0.75687   0.76290   0.76499
 Alpha virt. eigenvalues --    0.77100   0.77786   0.78336   0.78685   0.79246
 Alpha virt. eigenvalues --    0.79544   0.80704   0.80873   0.81580   0.81985
 Alpha virt. eigenvalues --    0.82138   0.83461   0.83942   0.84168   0.84347
 Alpha virt. eigenvalues --    0.85030   0.85602   0.86012   0.86641   0.87292
 Alpha virt. eigenvalues --    0.88004   0.88377   0.89482   0.89876   0.90448
 Alpha virt. eigenvalues --    0.90718   0.91075   0.92362   0.92730   0.93002
 Alpha virt. eigenvalues --    0.93639   0.94996   0.95537   0.96392   0.96875
 Alpha virt. eigenvalues --    0.96997   0.97804   0.99129   0.99323   1.00210
 Alpha virt. eigenvalues --    1.01320   1.01460   1.02824   1.03442   1.04413
 Alpha virt. eigenvalues --    1.05200   1.05908   1.07130   1.08126   1.09344
 Alpha virt. eigenvalues --    1.09493   1.09608   1.10556   1.11269   1.13269
 Alpha virt. eigenvalues --    1.13618   1.14596   1.15115   1.16316   1.18263
 Alpha virt. eigenvalues --    1.18725   1.20584   1.21488   1.21839   1.22385
 Alpha virt. eigenvalues --    1.23581   1.24506   1.25730   1.26024   1.26872
 Alpha virt. eigenvalues --    1.27831   1.28222   1.29085   1.29335   1.30646
 Alpha virt. eigenvalues --    1.31540   1.32514   1.32946   1.34052   1.34494
 Alpha virt. eigenvalues --    1.35635   1.36747   1.38069   1.38310   1.38738
 Alpha virt. eigenvalues --    1.39651   1.39998   1.40082   1.40941   1.41490
 Alpha virt. eigenvalues --    1.41724   1.42751   1.43039   1.43685   1.44767
 Alpha virt. eigenvalues --    1.45064   1.45577   1.46028   1.46493   1.46549
 Alpha virt. eigenvalues --    1.47443   1.47613   1.48126   1.49007   1.49737
 Alpha virt. eigenvalues --    1.50277   1.51188   1.51674   1.52637   1.52984
 Alpha virt. eigenvalues --    1.53362   1.53886   1.54191   1.54918   1.55279
 Alpha virt. eigenvalues --    1.56221   1.56788   1.57312   1.58679   1.58945
 Alpha virt. eigenvalues --    1.59433   1.60558   1.60684   1.60925   1.61991
 Alpha virt. eigenvalues --    1.62430   1.62754   1.63417   1.64396   1.64785
 Alpha virt. eigenvalues --    1.65315   1.65710   1.66100   1.66612   1.67524
 Alpha virt. eigenvalues --    1.67764   1.68436   1.68649   1.69617   1.70207
 Alpha virt. eigenvalues --    1.70247   1.71054   1.71548   1.71811   1.72356
 Alpha virt. eigenvalues --    1.72722   1.73100   1.73346   1.73743   1.73838
 Alpha virt. eigenvalues --    1.73886   1.74641   1.75107   1.75415   1.76147
 Alpha virt. eigenvalues --    1.76396   1.76724   1.77676   1.77797   1.78045
 Alpha virt. eigenvalues --    1.78657   1.79007   1.79535   1.80082   1.81333
 Alpha virt. eigenvalues --    1.81502   1.82087   1.83060   1.83859   1.84231
 Alpha virt. eigenvalues --    1.84734   1.84966   1.85297   1.85645   1.86021
 Alpha virt. eigenvalues --    1.86698   1.87594   1.88252   1.89064   1.89402
 Alpha virt. eigenvalues --    1.90266   1.90684   1.91496   1.92396   1.92695
 Alpha virt. eigenvalues --    1.93591   1.93735   1.94754   1.95807   1.96716
 Alpha virt. eigenvalues --    1.97500   1.98516   1.99046   1.99197   1.99769
 Alpha virt. eigenvalues --    2.00229   2.01317   2.01912   2.02674   2.03198
 Alpha virt. eigenvalues --    2.03887   2.04034   2.05330   2.05803   2.06307
 Alpha virt. eigenvalues --    2.06716   2.07120   2.08246   2.08673   2.08860
 Alpha virt. eigenvalues --    2.10031   2.10509   2.10940   2.12403   2.12846
 Alpha virt. eigenvalues --    2.13816   2.14367   2.14646   2.15862   2.16203
 Alpha virt. eigenvalues --    2.16909   2.17694   2.19358   2.20015   2.21055
 Alpha virt. eigenvalues --    2.21957   2.22428   2.23989   2.24559   2.25282
 Alpha virt. eigenvalues --    2.25996   2.26480   2.26686   2.28396   2.28841
 Alpha virt. eigenvalues --    2.29308   2.30591   2.31832   2.34208   2.36124
 Alpha virt. eigenvalues --    2.38351   2.38995   2.39828   2.40324   2.40850
 Alpha virt. eigenvalues --    2.41437   2.41618   2.42599   2.43337   2.43840
 Alpha virt. eigenvalues --    2.44411   2.45138   2.45654   2.46000   2.47250
 Alpha virt. eigenvalues --    2.47600   2.48724   2.49267   2.49474   2.50490
 Alpha virt. eigenvalues --    2.51101   2.51418   2.52696   2.53250   2.53790
 Alpha virt. eigenvalues --    2.54152   2.54775   2.55172   2.55823   2.56365
 Alpha virt. eigenvalues --    2.57050   2.57704   2.58209   2.58740   2.59421
 Alpha virt. eigenvalues --    2.59892   2.60547   2.61713   2.62777   2.63166
 Alpha virt. eigenvalues --    2.64526   2.66368   2.67014   2.68316   2.68718
 Alpha virt. eigenvalues --    2.70116   2.71030   2.71527   2.73337   2.74611
 Alpha virt. eigenvalues --    2.75915   2.77228   2.78479   2.80210   2.82088
 Alpha virt. eigenvalues --    2.82563   2.84005   2.87453   2.92438   2.93215
 Alpha virt. eigenvalues --    2.99774   3.00183   3.07273   3.13722   3.15302
 Alpha virt. eigenvalues --    3.17834   3.21920   3.46583   3.61643   3.69008
 Alpha virt. eigenvalues --    3.74876   3.96263  34.69570  35.06299  35.15995
 Alpha virt. eigenvalues --   46.07268
  Beta  occ. eigenvalues --  -77.24354 -19.24629 -19.22388 -19.19811 -14.44562
  Beta  occ. eigenvalues --  -14.43950 -10.29784 -10.29489 -10.28272 -10.27594
  Beta  occ. eigenvalues --  -10.27359 -10.26996 -10.26705 -10.26034 -10.25870
  Beta  occ. eigenvalues --  -10.25196 -10.24912 -10.23848 -10.23454 -10.23220
  Beta  occ. eigenvalues --  -10.22349 -10.21784 -10.21226 -10.20677 -10.20407
  Beta  occ. eigenvalues --  -10.13152  -6.62304  -4.75961  -4.75867  -4.75603
  Beta  occ. eigenvalues --   -2.99721  -1.84648  -1.83035  -1.80724  -1.11325
  Beta  occ. eigenvalues --   -1.08880  -1.00290  -0.97630  -0.88189  -0.84942
  Beta  occ. eigenvalues --   -0.84296  -0.83527  -0.80666  -0.79676  -0.78235
  Beta  occ. eigenvalues --   -0.74946  -0.71613  -0.70273  -0.69798  -0.68640
  Beta  occ. eigenvalues --   -0.67603  -0.66281  -0.66099  -0.63702  -0.61742
  Beta  occ. eigenvalues --   -0.59180  -0.55420  -0.54560  -0.53968  -0.53369
  Beta  occ. eigenvalues --   -0.52786  -0.52116  -0.51052  -0.50301  -0.49081
  Beta  occ. eigenvalues --   -0.48174  -0.47924  -0.46883  -0.46062  -0.45426
  Beta  occ. eigenvalues --   -0.44907  -0.44434  -0.44213  -0.43875  -0.43582
  Beta  occ. eigenvalues --   -0.43172  -0.42904  -0.42292  -0.41532  -0.41139
  Beta  occ. eigenvalues --   -0.40559  -0.40199  -0.40000  -0.39802  -0.39563
  Beta  occ. eigenvalues --   -0.39221  -0.39154  -0.38158  -0.37638  -0.37562
  Beta  occ. eigenvalues --   -0.37125  -0.36500  -0.36304  -0.35823  -0.35315
  Beta  occ. eigenvalues --   -0.35197  -0.34497  -0.34134  -0.33661  -0.32519
  Beta  occ. eigenvalues --   -0.31866  -0.31561  -0.31125  -0.30212  -0.28348
  Beta  occ. eigenvalues --   -0.27476  -0.27087  -0.26637  -0.21746  -0.19627
  Beta  occ. eigenvalues --   -0.19367  -0.13871
  Beta virt. eigenvalues --   -0.05015  -0.02329  -0.01128   0.00846   0.01938
  Beta virt. eigenvalues --    0.02543   0.03427   0.04615   0.05582   0.06683
  Beta virt. eigenvalues --    0.07304   0.07651   0.08138   0.08410   0.08917
  Beta virt. eigenvalues --    0.09272   0.09446   0.10188   0.10626   0.10686
  Beta virt. eigenvalues --    0.11370   0.11710   0.11890   0.12172   0.12516
  Beta virt. eigenvalues --    0.12776   0.13384   0.13698   0.14491   0.14684
  Beta virt. eigenvalues --    0.14729   0.15292   0.15670   0.15888   0.16562
  Beta virt. eigenvalues --    0.16692   0.17277   0.17506   0.18086   0.18651
  Beta virt. eigenvalues --    0.18859   0.19040   0.19213   0.19382   0.19649
  Beta virt. eigenvalues --    0.19871   0.20275   0.21106   0.21174   0.21635
  Beta virt. eigenvalues --    0.21889   0.22078   0.22767   0.23045   0.23929
  Beta virt. eigenvalues --    0.24107   0.24633   0.24680   0.25328   0.25686
  Beta virt. eigenvalues --    0.26238   0.26682   0.27140   0.27430   0.28292
  Beta virt. eigenvalues --    0.29240   0.29786   0.30677   0.31207   0.32047
  Beta virt. eigenvalues --    0.32871   0.33323   0.33858   0.34266   0.35177
  Beta virt. eigenvalues --    0.36558   0.37174   0.39404   0.40415   0.41476
  Beta virt. eigenvalues --    0.42398   0.43288   0.44068   0.44255   0.44644
  Beta virt. eigenvalues --    0.45184   0.45829   0.46032   0.46846   0.47487
  Beta virt. eigenvalues --    0.47860   0.48558   0.48940   0.49581   0.50959
  Beta virt. eigenvalues --    0.51504   0.51818   0.52340   0.53179   0.53403
  Beta virt. eigenvalues --    0.53758   0.55031   0.55441   0.56132   0.56512
  Beta virt. eigenvalues --    0.57457   0.58031   0.58238   0.58778   0.59325
  Beta virt. eigenvalues --    0.59511   0.60090   0.61127   0.61343   0.61836
  Beta virt. eigenvalues --    0.62185   0.62447   0.62852   0.62885   0.63307
  Beta virt. eigenvalues --    0.63322   0.63707   0.64125   0.64875   0.64995
  Beta virt. eigenvalues --    0.65173   0.65762   0.66154   0.66466   0.66936
  Beta virt. eigenvalues --    0.67243   0.67314   0.67658   0.67801   0.68209
  Beta virt. eigenvalues --    0.68367   0.68759   0.69519   0.69694   0.70157
  Beta virt. eigenvalues --    0.70344   0.70936   0.71184   0.71391   0.72116
  Beta virt. eigenvalues --    0.72579   0.72908   0.73217   0.74009   0.74176
  Beta virt. eigenvalues --    0.74767   0.74983   0.75634   0.75722   0.76396
  Beta virt. eigenvalues --    0.76556   0.77183   0.77939   0.78486   0.78782
  Beta virt. eigenvalues --    0.79301   0.79619   0.80767   0.81010   0.81672
  Beta virt. eigenvalues --    0.82167   0.82229   0.83583   0.84015   0.84224
  Beta virt. eigenvalues --    0.84415   0.85217   0.85748   0.86086   0.86765
  Beta virt. eigenvalues --    0.87396   0.88099   0.88533   0.89704   0.89972
  Beta virt. eigenvalues --    0.90555   0.90773   0.91168   0.92551   0.92885
  Beta virt. eigenvalues --    0.93073   0.93663   0.95068   0.95577   0.96435
  Beta virt. eigenvalues --    0.97010   0.97061   0.97828   0.99227   0.99444
  Beta virt. eigenvalues --    1.00343   1.01396   1.01535   1.02883   1.03531
  Beta virt. eigenvalues --    1.04466   1.05264   1.06075   1.07217   1.08315
  Beta virt. eigenvalues --    1.09420   1.09572   1.09670   1.10650   1.11336
  Beta virt. eigenvalues --    1.13329   1.13791   1.14739   1.15216   1.16387
  Beta virt. eigenvalues --    1.18336   1.18792   1.20667   1.21580   1.21960
  Beta virt. eigenvalues --    1.22510   1.23653   1.24643   1.25861   1.26133
  Beta virt. eigenvalues --    1.27039   1.27949   1.28351   1.29154   1.29425
  Beta virt. eigenvalues --    1.30713   1.31618   1.32657   1.33085   1.34093
  Beta virt. eigenvalues --    1.34534   1.35693   1.36819   1.38132   1.38354
  Beta virt. eigenvalues --    1.38804   1.39730   1.40050   1.40217   1.40968
  Beta virt. eigenvalues --    1.41536   1.41776   1.42846   1.43079   1.43756
  Beta virt. eigenvalues --    1.44821   1.45111   1.45625   1.46043   1.46517
  Beta virt. eigenvalues --    1.46589   1.47474   1.47660   1.48156   1.49071
  Beta virt. eigenvalues --    1.49801   1.50330   1.51240   1.51712   1.52671
[...]
 ,0.00001658,0.00001604,-0.00000195,0.00000346,0.00000280,0.00000054,-0
 .00000080,-0.00000355,-0.00000450,0.00000866,-0.00000952,0.00003229,-0
 .00000964,-0.00002791,0.00000303,-0.00001712,-0.00000194,-0.00008565,-
 0.00004483,0.00002371,-0.00016275,0.00024221,-0.00013953,-0.00001103,-
 0.00000635,-0.00000678,-0.00013550,-0.00018769,0.00022885,0.00071390,-
 0.00029895,-0.00030792,-0.00000603,-0.00003420,-0.00000306,0.00000980,
 -0.00000683,0.00001727,0.00000034,-0.00000025,0.00000304,0.00000965,0.
 00001497,0.00001200,-0.00002869,-0.00002728,0.00006871,0.00007337,0.00
 012852,-0.00017893,-0.00001530,0.00000053,-0.00002579,-0.00000499,-0.0
 0001033,-0.00001054,-0.00001668,-0.00000985,-0.00001540,-0.00000259,0.
 00000152,0.00000218,0.00000896,-0.00000411,-0.00000324,0.00005641,-0.0
 0002143,0.00008075,0.00000592,0.00000216,0.00001339,0.00002026,-0.0000
 1987,0.00010292,-0.00000225,0.00000479,-0.00000040,0.00000193,0.000005
 48,0.00000527,0.00001172,-0.00000430,0.00000152,0.00000237,-0.00000311
 ,-0.00000093,0.00000494,-0.00001078,-0.00000101,-0.00304781,0.00016380
 ,0.00313040,-0.00044546,0.00023972,-0.00055720,-0.00000703,0.00000724,
 -0.00001960,-0.00000752,-0.00001701,-0.00002256,0.00000383,0.00001344,
 0.00001683,-0.00000432,0.00000358,0.00000159,0.00001057,-0.00000470,0.
 00001700,-0.00022544,-0.00042410,0.00010281,-0.00001046,-0.00001318,-0
 .00001402,-0.00000787,-0.00000866,-0.00000538,0.00260714,0.00195264,0.
 00069278,0.00728707,-0.01237912,0.00184128,-0.00000768,-0.00000113,0.0
 0000893,-0.00039972,0.00063532,-0.00104437,0.00007991,-0.00006589,0.00
 000680,-0.00001674,0.00000843,0.00000556,-0.00100208,-0.00658039,0.003
 27543,0.05894888,-0.32448847,0.05257859,-0.00030983,0.00055563,-0.0010
 8861,-0.06398933,0.34081714,-0.00000105,0.00000902,0.00000063,0.000015
 31,0.00000923,-0.00000768,-0.00000128,0.00000103,0.00000035,0.00000112
 ,0.00000175,0.00000096,0.00000276,0.00000082,0.00000088,-0.00003236,0.
 00006335,-0.00000255,-0.00000094,0.00000290,-0.00000334,-0.00002031,0.
 00001267,-0.00003780,0.00000269,0.00001420,0.00004267,-0.00000149,0.00
 000485,-0.00000461,0.00000321,0.00000059,-0.00000188,0.00000127,-0.000
 01371,-0.00000820,0.00000173,0.00000234,0.00000092,0.00000009,-0.00000
 311,0.00000140,0.00000393,-0.00000384,0.00000983,0.00000780,-0.0000143
 6,-0.00000829,0.00000404,-0.00000651,-0.00000119,0.00010034,0.00011869
 ,-0.00001378,0.00006875,-0.00014841,-0.00030695,0.00000951,0.00000868,
 0.00001559,-0.00004596,0.00024391,-0.00004890,-0.00056499,0.00005056,-
 0.00022842,-0.00001607,0.00002408,-0.00000155,-0.00001309,0.00000124,-
 0.00000889,-0.00000135,0.00000154,-0.00000188,0.00000861,0.00000772,-0
 .00002465,-0.00002928,-0.00000531,0.00000204,0.00004292,-0.00014243,0.
 00000921,-0.00000146,0.00000528,0.00001582,-0.00000170,0.00000342,0.00
 000184,0.00000748,0.00000725,0.00000379,0.00000158,0.00000292,-0.00000
 276,-0.00000142,-0.00000244,-0.00000082,-0.00002333,-0.00001021,0.0000
 0569,-0.00000480,-0.00000010,-0.00000520,0.00004152,-0.00000558,0.0000
 8159,0.00000355,0.00000081,-0.00000028,-0.00000126,-0.00000038,0.00000
 168,0.00000712,-0.00000716,-0.00000289,0.00000103,-0.00000214,0.000001
 03,-0.00000075,-0.00000225,-0.00000135,0.00445984,0.00295228,0.0056082
 8,-0.00072714,-0.00062507,-0.00233449,-0.00000186,0.00000404,0.0000061
 4,-0.00000165,0.00000541,0.00000777,0.00001622,0.00000334,-0.00000487,
 -0.00000037,-0.00000004,0.00000201,-0.00000596,-0.00000043,0.00000183,
 -0.00015415,-0.00026162,-0.00028956,-0.00000137,-0.00000284,-0.0000005
 3,-0.00000183,0.00000156,0.00000537,0.00387453,0.00114895,0.00663920,-
 0.00328891,0.01188745,0.00263953,0.00000129,-0.00000087,0.00000345,-0.
 00150013,-0.00120474,-0.00310846,0.00012256,-0.00011205,0.00000840,-0.
 00005005,0.00003315,0.00001682,0.00244038,-0.00713597,0.00562399,-0.00
 540925,0.05257160,-0.05124943,-0.00158566,-0.00088979,-0.00334850,0.00
 225304,-0.05861830,0.04033961,0.00009174,0.00002687,0.00007704,-0.0000
 9965,0.00013346,-0.00020207,0.00029311,0.00009139,0.00000395,-0.000046
 81,-0.00012951,-0.00011972,-0.00005977,-0.00001927,-0.00000148,-0.0048
 0845,0.00131300,-0.00006004,-0.00009537,0.00001580,-0.00004585,0.00027
 403,-0.00086168,-0.00087268,0.00007921,-0.00001810,0.00028353,-0.00001
 780,-0.00000765,-0.00005547,0.00005990,0.00001635,-0.00009944,-0.00003
 668,-0.00002493,-0.00003757,-0.00036830,0.00006417,0.00008438,0.000046
 21,-0.00001564,0.00003234,-0.00011427,-0.00002938,0.00007553,0.0006519
 7,-0.00021721,-0.00033094,0.00005580,-0.00001769,0.00006047,0.00007622
 ,0.00019917,0.00005463,0.03160495,-0.00267415,-0.00747580,-0.00004249,
 -0.00005674,-0.00005900,-0.00042798,-0.00016394,-0.00174749,0.00032463
 ,-0.00021933,0.00010816,0.00056077,0.00010767,-0.00033923,0.00001837,-
 0.00004673,-0.00005215,-0.00017911,0.00001292,-0.00013020,-0.00011467,
 -0.00000127,-0.00013917,-0.00135049,-0.00088542,-0.00024111,0.00088965
 ,0.00257604,0.00460575,0.00007668,-0.00009846,-0.00012370,-0.00005281,
 0.00043167,-0.00015734,-0.00007872,0.00131638,-0.00009528,-0.00008586,
 -0.00002643,-0.00001196,-0.00006800,0.00001317,0.00006786,-0.00069055,
 -0.00147567,-0.00032835,0.00004127,0.00000255,-0.00004277,-0.06009876,
 -0.03727286,-0.07856618,0.00002931,0.00003220,0.00014070,-0.00391630,-
 0.00052033,0.00007058,0.00122379,-0.00108617,0.00103020,0.00004525,0.0
 0001909,0.00004249,-0.00042860,0.00002446,-0.00002721,-0.00021528,-0.0
 0028715,0.00031164,-0.00049906,-0.00051294,-0.00041512,0.00026082,0.00
 034674,0.00040745,-0.00000077,-0.00000213,0.00002653,-0.00004756,-0.00
 038690,-0.00013728,0.00005007,0.00000193,0.00003787,-0.00030113,0.0001
 0797,0.00005791,-0.00040256,-0.00027789,-0.00029901,0.00012147,-0.0000
 6564,0.00003047,0.00000643,0.00002788,0.00000691,-0.00008048,-0.000241
 52,0.00020959,0.00016003,0.00005601,0.00008499,-0.00076672,-0.00016314
 ,-0.00017006,0.00003597,-0.00006569,-0.00001886,-0.00021292,0.00014100
 ,-0.00006012,0.00008131,-0.00020894,0.00009784,0.00003048,0.00014448,0
 .00004155,0.00011041,-0.00020168,-0.00000337,-0.00003041,-0.00001585,-
 0.00001310,0.00001612,-0.00000835,-0.00001435,0.03860590,0.00006703,0.
 00010422,0.00008461,0.00017021,0.00018359,-0.00016075,0.00049003,0.000
 10656,0.00009686,-0.00023687,-0.00031516,-0.00037212,0.00021840,-0.000
 07681,0.00006223,0.00348296,-0.00896943,-0.00809962,0.00049234,0.00004
 541,0.00017636,-0.00095509,0.00148669,0.00082585,-0.00022981,-0.000369
 11,0.00024694,-0.00007477,0.00002279,-0.00007972,0.00019512,0.00014185
 ,-0.00002003,0.00011828,-0.00012710,-0.00003747,0.00022406,-0.00005965
 ,-0.00099047,-0.00019516,0.00005944,0.00001502,-0.00047080,-0.00008384
 ,0.00016552,-0.00121491,-0.00020158,0.00072826,-0.00027730,0.00021454,
 0.00006864,-0.00049548,0.00051696,0.00003793,-0.00804745,0.01194931,-0
 .03175023,0.00050017,0.00067287,0.00006242,-0.00062075,0.00062118,0.00
 132327,-0.00059721,-0.00030088,0.00021105,-0.00082075,0.00002195,0.000
 15542,-0.00014438,-0.00001661,-0.00005202,0.00012455,-0.00006310,0.000
 05374,-0.00004114,0.00000801,0.00022665,-0.00036682,-0.00099648,-0.000
 89458,0.00807192,0.00119049,-0.00047202,0.00020878,-0.00008167,-0.0000
 1912,-0.00007098,0.00061481,0.00053847,0.00101284,0.00027819,-0.000328
 57,-0.00005335,-0.00002253,-0.00007134,-0.00035253,0.00006915,0.000075
 68,-0.00058239,-0.00073013,-0.00167970,-0.00013554,-0.00006934,-0.0000
 1474,-0.03579420,-0.20659451,-0.32995897,0.00000457,-0.00001020,-0.000
 28554,-0.00219616,-0.00136788,0.00018467,-0.00021649,0.00096868,0.0000
 2962,-0.00013850,0.00000647,-0.00002821,-0.00042380,0.00000018,0.00024
 678,0.00109868,-0.00071054,-0.00026521,-0.00170697,0.00824908,0.002616
 39,0.00017993,0.00029262,0.00060988,-0.00003909,-0.00002436,0.00007367
 ,0.00006183,-0.00027417,-0.00003260,0.00012582,0.00002873,-0.00007731,
 -0.00028285,0.00013392,0.00001037,-0.00070725,-0.00047064,0.00020321,0
 .00021616,-0.00007761,0.00008658,0.00003612,-0.00002268,0.00003490,-0.
 00059177,-0.00166633,0.00035322,-0.00020973,0.00038162,-0.00004726,0.0
 0046084,0.00018450,0.00010584,0.00003101,-0.00002891,-0.00003139,-0.00
 011178,-0.00022249,-0.00000648,-0.00003252,-0.00042896,0.00029473,-0.0
 0035683,0.00052938,-0.00023021,0.00032387,-0.00090073,0.00012472,-0.00
 001158,-0.00005858,-0.00000257,0.00000636,-0.00000528,0.00000185,0.040
 85191,0.19631518,0.00003214,0.00024798,0.00018914,0.00040172,0.0000227
 2,-0.00022705,0.00083510,0.00023036,0.00021785,-0.00086460,-0.00060452
 ,-0.00073280,0.00034928,-0.00008871,0.00027778,0.00194687,-0.00174045,
 -0.00130384,0.00088702,-0.00021483,0.00050983,-0.00065206,0.00188216,-
 0.00197370,-0.00016127,-0.00089726,0.00096267,-0.00021428,-0.00000966,
 -0.00019673,0.00060421,0.00043051,-0.00023804,0.00025341,-0.00043225,-
 0.00005979,-0.00007547,0.00002188,-0.00164502,-0.00031949,0.00014777,0
 .00002751,-0.00073550,-0.00013868,0.00033930,-0.00128258,-0.00039877,0
 .00129106,-0.00056203,0.00054815,0.00021489,-0.00059025,0.00090602,0.0
 0009319,-0.01669897,-0.02579418,-0.05269846,0.00058207,0.00091509,0.00
 039608,0.00065802,0.00102889,0.00201892,-0.00074519,-0.00004152,0.0005
 9807,-0.00249797,-0.00038105,0.00138618,-0.00029797,-0.00004708,-0.000
 14960,0.00055087,-0.00010958,0.00022820,0.00003881,0.00019465,0.000453
 67,-0.00083624,-0.00247113,-0.00180088,0.01473760,0.00473789,-0.005354
 63,0.00048048,-0.00033570,-0.00009488,-0.00020152,0.00122519,0.0022817
 4,0.00211547,0.00116701,-0.00075331,-0.00021794,-0.00002684,-0.0000971
 0,-0.00106453,0.00019668,0.00010039,-0.00076266,-0.00099693,-0.0037914
 3,-0.00048185,-0.00025606,-0.00005552,-0.07646290,-0.33696578,-0.74408
 910,0.00003715,-0.00017070,-0.00116071,-0.00242599,-0.00186763,0.00003
 550,-0.00185369,0.00159619,-0.00037263,-0.00028227,0.00002957,-0.00006
 988,0.00001292,0.00012853,0.00069976,-0.00069725,-0.00190143,0.0005776
 8,0.00013380,0.00077555,0.00221996,0.00051427,0.00051684,0.00158446,0.
 00002881,0.00001415,0.00010473,0.00011601,-0.00136039,-0.00040615,0.00
 016197,-0.00001685,-0.00020748,-0.00064250,0.00029794,0.00002294,-0.00
 207919,-0.00068651,0.00037543,0.00063409,-0.00011598,0.00020563,0.0001
 0659,-0.00005172,0.00009151,0.00177807,-0.00261988,-0.00060145,0.00037
 068,0.00035437,0.00011928,0.00121638,0.00037369,0.00024854,0.00025060,
 -0.00034932,-0.00008842,-0.00039466,-0.00054502,0.00003170,-0.00004110
 ,-0.00092706,0.00063485,-0.00087715,0.00076781,0.00028786,0.00064738,-
 0.00148027,0.00014674,-0.00015243,-0.00043081,0.00000316,0.00000398,-0
 .00007669,-0.00003882,0.08454372,0.36556384,0.79922464,-0.00000572,-0.
 00004820,-0.00002559,0.00011980,0.00002790,0.00005778,-0.00003695,0.00
 004351,0.00004336,0.00000778,0.00004819,0.00004775,-0.00137358,0.00022
 581,0.00144136,-0.00196232,0.00272627,-0.00593078,-0.00000202,0.000052
 51,-0.00001356,-0.04452767,-0.04523401,-0.13214734,-0.00000820,0.00013
 867,-0.00019239,-0.00018531,-0.00003210,-0.00009302,-0.00004974,0.0000
 0078,0.00000373,-0.00059240,-0.00075393,-0.00045365,-0.00000335,-0.000
 00192,-0.00006192,0.00042733,0.00024921,-0.00020662,0.00015868,-0.0001
 6789,-0.00037094,0.00002091,-0.00002380,0.00012599,-0.00000818,0.00000
 206,-0.00003037,-0.00008956,0.00002632,-0.00028124,-0.00105072,0.00035
 150,-0.00168570,0.00035509,-0.00027064,0.00011527,0.00000606,-0.000118
 26,0.00022416,-0.00010187,0.00009175,-0.00008105,0.00027560,-0.0002616
 7,0.00047252,-0.00005806,-0.00014130,-0.00002749,-0.00007308,0.0000291
 6,-0.00002011,-0.00024875,0.00022553,-0.00027518,-0.00016813,-0.000070
 92,-0.00008154,0.00077098,0.00019373,0.00046281,-0.00002666,0.00001884
 ,-0.00005962,0.00003096,0.00002283,0.00010029,0.00000514,0.00001205,-0
 .00000281,-0.00001354,-0.00001316,-0.00000754,-0.00003273,-0.00001115,
 -0.00004006,-0.00004779,-0.00002259,-0.00004711,-0.00007814,-0.0000646
 0,0.00000247,0.00046311,0.00032594,0.00047742,-0.00017601,0.00017168,-
 0.00041613,0.00000336,0.00000496,-0.00001495,0.00001514,-0.00002136,0.
 00000328,-0.00000999,-0.00002083,0.00003628,0.00000065,0.00000202,-0.0
 0001195,0.00015357,0.00004041,0.00002383,-0.00008971,0.00013946,-0.000
 18422,0.00000572,0.00001046,0.00000287,0.00012001,0.00018827,-0.000090
 65,0.00000590,-0.00002173,0.00002560,-0.00000834,0.00000500,-0.0000004
 8,-0.00000182,0.00000535,-0.00001018,-0.00018236,-0.00005455,-0.000156
 13,-0.00000058,-0.00000448,0.00001201,0.00011211,0.00016385,-0.0000709
 0,0.00016913,-0.00015405,-0.00000156,-0.00005656,-0.00001146,0.0000727
 4,-0.00000229,0.00001145,-0.00000988,-0.00000826,0.00001115,-0.0000108
 7,-0.00004872,0.00005237,-0.00005034,-0.00000733,-0.00004829,0.0000576
 5,-0.00010394,0.00010108,0.00003188,0.00008011,-0.00004023,-0.00002691
 ,-0.00000658,-0.00001827,0.00000681,-0.00000531,-0.00000051,0.00000139
 ,-0.00018352,0.00002919,0.00014198,0.04832865,0.00001045,0.00000425,0.
 00000294,0.00018512,0.00006096,-0.00014721,-0.00008672,-0.00000110,0.0
 0000119,-0.00001649,0.00003701,0.00016486,-0.00022088,0.00053983,-0.00
 000781,0.01486795,-0.00612472,0.04777038,-0.00000244,0.00001752,0.0000
 1564,-0.05803500,-0.09841900,-0.18088689,0.00000649,-0.00005189,0.0001
 8077,-0.00014367,0.00001335,-0.00006245,-0.00001831,0.00004859,-0.0000
 6398,0.00000399,-0.00044252,0.00009247,0.00000036,-0.00002829,-0.00000
 716,0.00014712,0.00004242,-0.00010758,0.00019384,-0.00012234,-0.000074
 18,-0.00000651,0.00000200,-0.00002431,-0.00000268,-0.00000705,-0.00000
 100,0.00001348,0.00017138,0.00022814,0.00155120,-0.00287966,-0.0002147
 9,-0.00001031,-0.00009337,0.00045961,-0.00006121,-0.00004334,-0.000099
 44,0.00012467,-0.00002255,0.00001068,-0.00026094,0.00005762,0.00021605
 ,-0.00013124,-0.00013842,-0.00002941,-0.00001289,0.00001821,-0.0000052
 6,-0.00022661,0.00003523,-0.00021072,-0.00007732,-0.00000464,-0.000034
 99,0.00031080,0.00033929,-0.00009596,0.00002494,-0.00002300,0.00008307
 ,-0.00000201,0.00000480,0.00001883,-0.00001129,-0.00000930,0.00000389,
 0.00001136,0.00000286,0.00000017,-0.00000701,-0.00000700,-0.00001669,0
 .00004920,-0.00000302,-0.00003981,-0.00008397,-0.00003057,-0.00001019,
 -0.00061154,0.00072223,0.00012111,0.00009020,-0.00016984,-0.00014085,0
 .00000604,0.00000684,-0.00001226,0.00001813,-0.00003476,0.00000161,0.0
 0007219,0.00001188,-0.00001166,-0.00000051,-0.00000330,-0.00001205,-0.
 00014322,0.00011397,-0.00006464,0.00014140,-0.00031650,0.00058140,0.00
 000662,-0.00000967,0.00001515,0.00021637,0.00008715,-0.00012864,-0.000
 00125,0.00001638,-0.00000205,-0.00000633,-0.00000802,0.00001293,0.0000
 0062,0.00000283,0.00000110,-0.00003372,-0.00001276,-0.00003289,0.00000
 671,0.00000559,-0.00000371,-0.00000678,0.00000545,0.00000793,0.0001148
 4,0.00001489,-0.00008535,-0.00000603,-0.00007964,-0.00007008,-0.000009
 56,-0.00000521,0.00000759,0.00001727,-0.00000488,0.00001318,-0.0000240
 5,0.00001195,-0.00001108,-0.00000830,-0.00002453,0.00003174,-0.0000473
 6,-0.00006948,-0.00003992,0.00000275,0.00000809,0.00000231,0.00000333,
 -0.00001451,0.00002272,0.00000397,-0.00000125,0.00001116,0.00023209,-0
 .00005109,0.00022980,0.04188263,0.10685460,0.00000836,0.00001501,-0.00
 000943,0.00004073,-0.00006825,0.00003183,0.00001599,0.00002924,0.00002
 590,0.00006003,0.00003538,-0.00000615,0.00128574,-0.00004416,-0.000677
 78,-0.00289350,0.00044723,-0.00994425,0.00002298,-0.00003857,0.0000135
 2,-0.13693231,-0.13515497,-0.40299680,0.00014335,-0.00002488,-0.000062
 75,-0.00011027,-0.00013282,-0.00001740,0.00006649,-0.00001090,0.000068
 22,0.00015435,0.00043586,0.00035024,-0.00000039,0.00002950,0.00000504,
 -0.00037858,-0.00016874,0.00007811,-0.00032088,0.00004458,0.00002315,-
 0.00002270,0.00001190,-0.00008280,0.00000545,0.00000288,0.00003857,-0.
 00030023,0.00018631,-0.00004469,-0.00064623,0.00067740,-0.00291184,0.0
 0054019,0.00071361,0.00002970,0.00007552,-0.00001631,-0.00002083,0.000
 06695,-0.00010849,0.00014184,-0.00003640,0.00023466,-0.00040841,-0.000
 14187,-0.00004910,0.00003778,0.00004033,-0.00001646,0.00000135,-0.0000
 8781,-0.00004765,-0.00007058,0.00010705,0.00004234,0.00003373,-0.00021
 652,-0.00018497,-0.00039331,0.00004203,-0.00000748,0.00004198,-0.00000
 869,-0.00001619,-0.00005888,-0.00001091,0.00000879,-0.00000394,-0.0000
 0447,0.00000144,-0.00000317,0.00002026,0.00000856,0.00002534,-0.000022
 29,0.00000243,-0.00002385,0.00005391,0.00003600,-0.00000606,0.00044248
 ,-0.00074903,0.00076462,0.00007275,-0.00005047,0.00029635,0.00000593,-
 0.00001139,0.00000170,0.00000048,0.00001598,0.00001032,-0.00000813,0.0
 0000211,-0.00000910,-0.00000641,0.00000010,0.00000704,0.00021568,0.000
 21548,-0.00020487,-0.00020944,0.00107610,-0.00000989,0.00000496,0.0000
 0116,0.00002205,-0.00002991,-0.00011583,0.00000899,0.00000832,-0.00000
 202,0.00000975,0.00000305,-0.00000587,0.00000170,-0.00000274,-0.000002
 51,-0.00000312,0.00012584,-0.00000551,0.00008755,0.00000442,-0.0000008
 9,0.00000694,-0.00007200,-0.00010170,0.00003556,-0.00027028,0.00009733
 ,0.00001522,-0.00008534,-0.00005253,0.00000914,0.00000066,-0.00000904,
 0.00000555,-0.00000805,0.00002710,0.00000692,0.00002739,-0.00001892,0.
 00002142,0.00000257,0.00002030,-0.00003295,0.00005313,-0.00002075,-0.0
 0003302,0.00000947,0.00002690,-0.00000672,0.00000087,0.00003609,-0.000
 00622,-0.00000025,-0.00000502,0.00000021,-0.00010065,0.00031306,0.0000
 0661,0.13919955,0.13244659,0.41578485\\0.00000305,-0.00000022,-0.00000
 026,-0.00000552,-0.00000347,-0.00000040,-0.00000102,0.00000070,0.00000
 189,0.00000107,0.00000024,-0.00000044,-0.00000229,0.00000311,-0.000001
 06,0.00001546,0.00002793,-0.00000007,-0.00000115,-0.00000082,-0.000000
 51,-0.00000066,-0.00002288,0.00001227,0.00000146,-0.00000136,0.0000082
 6,0.00000327,0.00000144,-0.00000146,0.00000006,0.00000062,-0.00000085,
 0.00000387,-0.00001240,-0.00000202,0.00000109,0.00000098,-0.00000198,0
 .00000258,0.00000089,-0.00000311,0.00000188,-0.00000207,-0.00000082,0.
 00000307,0.00000009,-0.00000019,-0.00000039,-0.00000080,-0.00000214,-0
 .00000412,0.00000284,-0.00000051,0.00000388,0.00000695,0.00001127,-0.0
 0000957,-0.00002370,-0.00001443,0.00000294,0.00001021,-0.00000049,-0.0
 0000104,-0.00001747,-0.00000025,-0.00000975,0.00000245,-0.00000097,0.0
 0000082,-0.00000103,0.00000165,-0.00000093,-0.00000223,-0.00000197,-0.
 00000755,-0.00000297,-0.00000612,-0.00000872,0.00000147,-0.00000131,0.
 00000776,-0.00000490,0.00000270,-0.00000098,0.00000429,-0.00000031,-0.
 00000075,-0.00000227,-0.00000644,-0.00000088,0.00000262,-0.00000173,-0
 .00000017,0.00000213,0.00000106,-0.00000090,-0.00000052,-0.00000272,-0
 .00000415,-0.00000070,0.00000273,-0.00000053,-0.00000160,0.00000019,0.
 00000188,0.00000979,0.00000281,0.00000442,-0.00000250,0.00000344,0.000
 00011,0.00000080,-0.00000155,-0.00000189,-0.00000216,-0.00000378,-0.00
 000225,0.00000132,0.00000175,-0.00000268,0.00000003,-0.00000229,0.0000
 1730,-0.00000836,-0.00000128,-0.00000346,0.00002063,-0.00000303,-0.000
 00006,0.00000365,0.00000323,0.00000175,0.00000251,0.00000363,-0.000001
 23,0.00000315,0.00000192,-0.00000179,-0.00000187,-0.00000118,-0.000001
 22,0.00000158,0.00000131,-0.00000143,-0.00001250,-0.00000805,0.,0.0000
 0078,0.00000053,0.00000158,0.00000015,-0.00000106,-0.00000629,-0.00001
 100,0.00000762,-0.00000475,0.00000465,0.00000356,0.00000010,0.00000090
 ,-0.00000027,0.00000129,0.00000127,0.00000241,0.00000492,0.00001321,-0
 .00000149,0.00000282,0.00000018,0.00000582,0.,0.00000404,-0.00000346,0
 .00000190,-0.00000322,0.00000296,-0.00000050,0.00000067,0.00000037,0.0
 0000061,0.00000116,0.00000199,-0.00000333,-0.00000120,-0.00000456,0.00
 000103,0.00000479,-0.00000084\\\@


 Some scientists claim that hydrogen, because it is so
 plentiful, is the basic building block of the universe. 
 I dispute that. I say that stupidity is far more
 abundant than hydrogen, and THAT is the basic building 
 block of the universe.
                   --Frank Zappa
 Job cpu time:       1 days 18 hours  9 minutes 14.4 seconds.
 Elapsed time:       0 days  2 hours  6 minutes 34.3 seconds.
 File lengths (MBytes):  RWF=   4186 Int=      0 D2E=      0 Chk=     42 Scr=      1
 Normal termination of Gaussian 16 at Mon Jun 22 19:30:32 2020.
