 Entering Gaussian System, Link 0=g16
 Initial command:
 /cluster/chemistry/gaussian/g16/l1.exe "/scratch/js1212.15462/scratch/Gau-24744.inp" -scrdir="/scratch/js1212.15462/scratch/"
 Entering Link 1 = /cluster/chemistry/gaussian/g16/l1.exe PID=     24745.
  
 Copyright (c) 1988,1990,1992,1993,1995,1998,2003,2009,2016,
            Gaussian, Inc.  All Rights Reserved.
  
 This is part of the Gaussian(R) 16 program.  It is based on
 the Gaussian(R) 09 system (copyright 2009, Gaussian, Inc.),
 the Gaussian(R) 03 system (copyright 2003, Gaussian, Inc.),
 the Gaussian(R) 98 system (copyright 1998, Gaussian, Inc.),
 the Gaussian(R) 94 system (copyright 1995, Gaussian, Inc.),
 the Gaussian 92(TM) system (copyright 1992, Gaussian, Inc.),
 the Gaussian 90(TM) system (copyright 1990, Gaussian, Inc.),
 the Gaussian 88(TM) system (copyright 1988, Gaussian, Inc.),
 the Gaussian 86(TM) system (copyright 1986, Carnegie Mellon
 University), and the Gaussian 82(TM) system (copyright 1983,
 Carnegie Mellon University). Gaussian is a federally registered
 trademark of Gaussian, Inc.
  
 This software contains proprietary and confidential information,
 including trade secrets, belonging to Gaussian, Inc.
  
 This software is provided under written license and may be
 used, copied, transmitted, or stored only in accord with that
 written license.
  
 The following legend is applicable only to US Government
 contracts under FAR:
  
                    RESTRICTED RIGHTS LEGEND
  
 Use, reproduction and disclosure by the US Government is
 subject to restrictions as set forth in subparagraphs (a)
 and (c) of the Commercial Computer Software - Restricted
 Rights clause in FAR 52.227-19.
  
 Gaussian, Inc.
 340 Quinnipiac St., Bldg. 40, Wallingford CT 06492
  
  
 ---------------------------------------------------------------
 Warning -- This program may not be used in any manner that
 competes with the business of Gaussian, Inc. or will provide
 assistance to any competitor of Gaussian, Inc.  The licensee
 of this program is prohibited from giving any competitor of
 Gaussian, Inc. access to this program.  By using this program,
 the user acknowledges that Gaussian, Inc. is engaged in the
 business of creating and licensing software in the field of
 computational chemistry and represents and warrants to the
 licensee that it is not a competitor of Gaussian, Inc. and that
 it will not use this program in any manner prohibited above.
 ---------------------------------------------------------------
  

 Cite this work as:
 Gaussian 16, Revision A.03,
 M. J. Frisch, G. W. Trucks, H. B. Schlegel, G. E. Scuseria, 
 M. A. Robb, J. R. Cheeseman, G. Scalmani, V. Barone, 
 G. A. Petersson, H. Nakatsuji, X. Li, M. Caricato, A. V. Marenich, 
 J. Bloino, B. G. Janesko, R. Gomperts, B. Mennucci, H. P. Hratchian, 
 J. V. Ortiz, A. F. Izmaylov, J. L. Sonnenberg, D. Williams-Young, 
 F. Ding, F. Lipparini, F. Egidi, J. Goings, B. Peng, A. Petrone, 
 T. Henderson, D. Ranasinghe, V. G. Zakrzewski, J. Gao, N. Rega, 
 G. Zheng, W. Liang, M. Hada, M. Ehara, K. Toyota, R. Fukuda, 
 J. Hasegawa, M. Ishida, T. Nakajima, Y. Honda, O. Kitao, H. Nakai, 
 T. Vreven, K. Throssell, J. A. Montgomery, Jr., J. E. Peralta, 
 F. Ogliaro, M. J. Bearpark, J. J. Heyd, E. N. Brothers, K. N. Kudin, 
 V. N. Staroverov, T. A. Keith, R. Kobayashi, J. Normand, 
 K. Raghavachari, A. P. Rendell, J. C. Burant, S. S. Iyengar, 
 J. Tomasi, M. Cossi, J. M. Millam, M. Klene, C. Adamo, R. Cammi, 
 J. W. Ochterski, R. L. Martin, K. Morokuma, O. Farkas, 
 J. B. Foresman, and D. J. Fox, Gaussian, Inc., Wallingford CT, 2016.
 
 ******************************************
 Gaussian 16:  ES64L-G16RevA.03 25-Dec-2016
                12-Nov-2018 
 ******************************************
 %rwf=/scratch/js1212.15462/2-Full-TPy-B-GPNMR.rwf
 %nosave
 %nprocshared=16
 Will use up to   16 processors via shared memory.
 %mem=3000MB
 %chk=/scratch/js1212.15462/2-Full-TPy-B-GPOF.chk
 ----------------------------------------------------------------------
 # nmr genecp pbe1pbe EmpiricalDispersion=GD3BJ scrf=(SMD,solvent=water
 ) geom=allcheck
 ----------------------------------------------------------------------
 1/29=7,38=1,172=1/1;
 2/12=2,40=1/2;
 3/5=7,11=2,14=-4,16=1,17=8,25=1,30=1,70=32201,72=1,74=-13,124=41/1,2,3,8;
 4//1;
 5/5=2,38=5,53=1/2;
 8/6=1,10=90,11=11/1;
 10/13=100,45=16/2;
 6/7=2,8=2,9=2,10=2,28=1/1;
 99/9=1/99;
 Structure from the checkpoint file:  "/scratch/js1212.15462/2-Full-TPy-B-GPOF.chk"
 -------------------
 Title Card Required
 -------------------
 Charge =  0 Multiplicity = 1
 Redundant internal coordinates found in file.  (old form).
 N,0,-0.737347415,1.4122671181,-0.1407977609
 C,0,-1.9518848844,1.8647666349,0.1960695719
 C,0,0.1806961005,2.2123170202,-0.7046978203
 C,0,-2.2946688677,3.2008277104,0.0278594789
 C,0,-1.3363761702,4.0661804776,-0.4990495032
 C,0,-0.0916549741,3.5712561631,-0.8743925116
 C,0,-2.8459392836,0.8108393523,0.7805169352
 H,0,-3.2888627585,3.5549450983,0.3027449623
 H,0,-1.5682408697,5.1242298582,-0.6349897801
 H,0,0.6611639868,4.2256640456,-1.3155248742
 C,0,1.4412991536,1.5538509978,-1.1796141975
 N,0,-2.7291643618,-0.4720084747,0.0533295925
 H,0,-3.8904320424,1.1640982183,0.826933483
 H,0,-2.5163090845,0.6215856791,1.8151071887
 H,0,1.2375486063,1.232376008,-2.2153362121
 P,0,1.7524950219,-0.078532243,-0.3082865778
 H,0,2.2941622762,2.2474900489,-1.1745341457
 Ru,0,-0.4264650924,-0.6849023222,-0.0692643847
 C,0,-3.3114799714,-0.3627947727,-1.3046529314
 C,0,2.9407574308,-0.9787424852,-1.4987679381
 C,0,-3.3894375909,-1.518986373,0.8623328594
 C,0,2.702896535,0.4476859508,1.2610639329
 C,0,2.0889927807,-1.6731505852,-2.5635643383
 C,0,3.7064870086,-2.06379557,-0.7404825388
 C,0,3.9162327021,-0.0340804024,-2.2048300476
 C,0,1.8311494616,1.4843051353,1.9805251487
 C,0,4.0586565063,1.0915890843,0.9675966979
 C,0,2.9035760623,-0.7447418941,2.2012118922
 H,0,-0.2393692192,-2.264611813,-0.3217158357
 H,0,-2.6995811131,0.3671065842,-1.850290585
 C,0,-4.7953640613,-0.0389886119,-1.3834760759
 H,0,-3.103282527,-1.3150789417,-1.8076517785
 H,0,-2.8842949551,-1.5237175249,1.8384580956
 C,0,-3.3135263545,-2.9000743242,0.2487373971
 H,0,-4.4434327692,-1.2352858602,1.0494932772
 C,0,-0.378285372,-1.1304681233,1.6955725884
 O,0,-0.5899640963,-0.3244643122,-2.1252209853
 H,0,-0.5811120406,-1.1821741774,-2.5627150673
 H,0,-2.2703998538,-3.1295760224,-0.0170175138
 H,0,-3.9405886795,-2.9982650305,-0.6497618552
 H,0,-3.6649849041,-3.6420178614,0.9807769326
 H,0,-5.0878158256,-0.0078720517,-2.4439091451
 H,0,-5.04577776,0.9442409761,-0.9562082335
 H,0,-5.4290674778,-0.7942418434,-0.8935209061
 H,0,2.7625978918,-2.1976435546,-3.2623134106
 H,0,1.4719890236,-0.9589790123,-3.1240954442
 H,0,1.4136289909,-2.4057490403,-2.0995769144
 H,0,4.2249589529,-2.7070357572,-1.4708369733
 H,0,3.0248576936,-2.7031927609,-0.1588065979
 H,0,4.4704001408,-1.6551682089,-0.0649797351
 H,0,4.5737310234,-0.6307594144,-2.8595444252
 H,0,4.5598769977,0.5256561733,-1.5151648369
 H,0,3.3901452863,0.6852199069,-2.8489915252
 H,0,4.7860109685,0.3753962605,0.5622706996
 H,0,4.4774679053,1.4813590194,1.9106617042
 H,0,3.9815051802,1.9408898134,0.2717542376
 H,0,3.6048262314,-1.4851601822,1.7987701223
 H,0,1.9606409357,-1.2537638422,2.432164116
 H,0,3.3235681832,-0.3756162718,3.1521603784
 H,0,2.3084236001,1.7388567688,2.9411201825
 H,0,0.8244429858,1.098930266,2.1901660302
 H,0,1.7326517369,2.4168087867,1.405137279
 O,0,-0.4081469849,-1.488739491,2.8098486224
 Recover connectivity data from disk.
                           ----------------------------
                           !    Current Parameters    !
                           ! (Angstroms and Degrees)  !
 --------------------------                            --------------------------
 ! Name  Definition              Value                                          !
 --------------------------------------------------------------------------------
 ! R1    R(1,2)                  1.3392                                         !
 ! R2    R(1,3)                  1.342                                          !
 ! R3    R(1,18)                 2.1213                                         !
 ! R4    R(2,4)                  1.3896                                         !
 ! R5    R(2,7)                  1.5006                                         !
 ! R6    R(3,6)                  1.3963                                         !
 ! R7    R(3,11)                 1.4994                                         !
 ! R8    R(4,5)                  1.3946                                         !
 ! R9    R(4,8)                  1.0906                                         !
 ! R10   R(5,6)                  1.3911                                         !
 ! R11   R(5,9)                  1.0917                                         !
 ! R12   R(6,10)                 1.0907                                         !
 ! R13   R(7,12)                 1.4792                                         !
 ! R14   R(7,13)                 1.1036                                         !
 ! R15   R(7,14)                 1.1022                                         !
 ! R16   R(11,15)                1.1034                                         !
 ! R17   R(11,16)                1.8764                                         !
 ! R18   R(11,17)                1.0993                                         !
 ! R19   R(12,19)                1.4816                                         !
 ! R20   R(12,21)                1.4787                                         !
 ! R21   R(16,18)                2.2744                                         !
 ! R22   R(16,20)                1.9078                                         !
 ! R23   R(16,22)                1.9087                                         !
 ! R24   R(18,29)                1.6107                                         !
 ! R25   R(18,36)                1.8209                                         !
 ! R26   R(18,37)                2.0937                                         !
 ! R27   R(19,30)                1.0977                                         !
 ! R28   R(19,31)                1.5208                                         !
 ! R29   R(19,32)                1.0969                                         !
 ! R30   R(20,23)                1.5302                                         !
 ! R31   R(20,24)                1.5293                                         !
 ! R32   R(20,25)                1.5305                                         !
 ! R33   R(21,33)                1.0991                                         !
 ! R34   R(21,34)                1.5132                                         !
 ! R35   R(21,35)                1.1074                                         !
 ! R36   R(22,26)                1.5337                                         !
 ! R37   R(22,27)                1.5293                                         !
 ! R38   R(22,28)                1.5317                                         !
 ! R39   R(23,45)                1.1032                                         !
 ! R40   R(23,46)                1.0977                                         !
 ! R41   R(23,47)                1.0991                                         !
 ! R42   R(24,48)                1.1027                                         !
 ! R43   R(24,49)                1.1008                                         !
 ! R44   R(24,50)                1.0986                                         !
 ! R45   R(25,51)                1.1032                                         !
 ! R46   R(25,52)                1.0969                                         !
 ! R47   R(25,53)                1.0996                                         !
 ! R48   R(26,60)                1.1024                                         !
 ! R49   R(26,61)                1.0981                                         !
 ! R50   R(26,62)                1.1002                                         !
 ! R51   R(27,54)                1.0983                                         !
 ! R52   R(27,55)                1.103                                          !
 ! R53   R(27,56)                1.1007                                         !
 ! R54   R(28,57)                1.0963                                         !
 ! R55   R(28,58)                1.0962                                         !
 ! R56   R(28,59)                1.1032                                         !
 ! R57   R(31,42)                1.1005                                         !
 ! R58   R(31,43)                1.1009                                         !
 ! R59   R(31,44)                1.1009                                         !
 ! R60   R(34,39)                1.1006                                         !
 ! R61   R(34,40)                1.1001                                         !
 ! R62   R(34,41)                1.0999                                         !
 ! R63   R(36,63)                1.1708                                         !
 ! R64   R(37,38)                0.9629                                         !
 ! A1    A(2,1,3)              121.648                                          !
 ! A2    A(2,1,18)             117.2897                                         !
 ! A3    A(3,1,18)             120.2193                                         !
 ! A4    A(1,2,4)              121.2097                                         !
 ! A5    A(1,2,7)              113.642                                          !
 ! A6    A(4,2,7)              125.1339                                         !
 ! A7    A(1,3,6)              119.8582                                         !
 ! A8    A(1,3,11)             116.5149                                         !
 ! A9    A(6,3,11)             123.5653                                         !
 ! A10   A(2,4,5)              118.2199                                         !
 ! A11   A(2,4,8)              120.4359                                         !
 ! A12   A(5,4,8)              121.3441                                         !
 ! A13   A(4,5,6)              119.738                                          !
 ! A14   A(4,5,9)              120.1667                                         !
 ! A15   A(6,5,9)              120.0844                                         !
 ! A16   A(3,6,5)              119.2086                                         !
 ! A17   A(3,6,10)             119.8985                                         !
 ! A18   A(5,6,10)             120.8813                                         !
 ! A19   A(2,7,12)             111.7529                                         !
 ! A20   A(2,7,13)             110.822                                          !
 ! A21   A(2,7,14)             107.9391                                         !
 ! A22   A(12,7,13)            111.9004                                         !
 ! A23   A(12,7,14)            106.7935                                         !
 ! A24   A(13,7,14)            107.3695                                         !
 ! A25   A(3,11,15)            105.6641                                         !
 ! A26   A(3,11,16)            111.9873                                         !
 ! A27   A(3,11,17)            111.9432                                         !
 ! A28   A(15,11,16)           102.3006                                         !
 ! A29   A(15,11,17)           109.3546                                         !
 ! A30   A(16,11,17)           114.7152                                         !
 ! A31   A(7,12,19)            110.8319                                         !
 ! A32   A(7,12,21)            108.049                                          !
 ! A33   A(19,12,21)           112.2189                                         !
 ! A34   A(11,16,18)            96.9991                                         !
 ! A35   A(11,16,20)           102.9461                                         !
 ! A36   A(11,16,22)           102.9763                                         !
 ! A37   A(18,16,20)           122.446                                          !
 ! A38   A(18,16,22)           117.655                                          !
 ! A39   A(20,16,22)           109.4527                                         !
 ! A40   A(1,18,16)             82.72                                           !
 ! A41   A(1,18,36)            106.1696                                         !
 ! A42   A(1,18,37)             77.5989                                         !
 ! A43   A(16,18,29)            97.6851                                         !
 ! A44   A(16,18,36)            98.1492                                         !
 ! A45   A(16,18,37)            85.74                                           !
 ! A46   A(29,18,36)            84.7698                                         !
 ! A47   A(29,18,37)            91.3755                                         !
 ! A48   A(12,19,30)           106.5906                                         !
 ! A49   A(12,19,31)           116.5308                                         !
 ! A50   A(12,19,32)           106.3622                                         !
 ! A51   A(30,19,31)           112.1208                                         !
 ! A52   A(30,19,32)           104.095                                          !
 ! A53   A(31,19,32)           110.2591                                         !
 ! A54   A(16,20,23)           107.5571                                         !
 ! A55   A(16,20,24)           109.7096                                         !
 ! A56   A(16,20,25)           113.1791                                         !
 ! A57   A(23,20,24)           107.564                                          !
 ! A58   A(23,20,25)           108.2918                                         !
 ! A59   A(24,20,25)           110.3373                                         !
 ! A60   A(12,21,33)           106.4821                                         !
 ! A61   A(12,21,34)           113.7019                                         !
 ! A62   A(12,21,35)           109.6363                                         !
 ! A63   A(33,21,34)           109.4601                                         !
 ! A64   A(33,21,35)           106.7638                                         !
 ! A65   A(34,21,35)           110.4931                                         !
 ! A66   A(16,22,26)           106.7998                                         !
 ! A67   A(16,22,27)           113.5612                                         !
 ! A68   A(16,22,28)           110.811                                          !
 ! A69   A(26,22,27)           108.0191                                         !
 ! A70   A(26,22,28)           108.224                                          !
 ! A71   A(27,22,28)           109.2335                                         !
 ! A72   A(20,23,45)           108.4582                                         !
 ! A73   A(20,23,46)           111.8987                                         !
 ! A74   A(20,23,47)           110.5331                                         !
 ! A75   A(45,23,46)           109.2135                                         !
 ! A76   A(45,23,47)           109.0059                                         !
 ! A77   A(46,23,47)           107.6879                                         !
 ! A78   A(20,24,48)           108.717                                          !
 ! A79   A(20,24,49)           111.3511                                         !
 ! A80   A(20,24,50)           112.9023                                         !
 ! A81   A(48,24,49)           107.5953                                         !
 ! A82   A(48,24,50)           107.2947                                         !
 ! A83   A(49,24,50)           108.7668                                         !
 ! A84   A(20,25,51)           108.6519                                         !
 ! A85   A(20,25,52)           113.5089                                         !
 ! A86   A(20,25,53)           111.6585                                         !
 ! A87   A(51,25,52)           107.4227                                         !
 ! A88   A(51,25,53)           106.9355                                         !
 ! A89   A(52,25,53)           108.3763                                         !
 ! A90   A(22,26,60)           108.5872                                         !
 ! A91   A(22,26,61)           111.9276                                         !
 ! A92   A(22,26,62)           112.2377                                         !
 ! A93   A(60,26,61)           108.1539                                         !
 ! A94   A(60,26,62)           107.3836                                         !
 ! A95   A(61,26,62)           108.3743                                         !
 ! A96   A(22,27,54)           112.5419                                         !
 ! A97   A(22,27,55)           108.7424                                         !
 ! A98   A(22,27,56)           112.5854                                         !
 ! A99   A(54,27,55)           107.1274                                         !
 ! A100  A(54,27,56)           108.438                                          !
 ! A101  A(55,27,56)           107.1256                                         !
 ! A102  A(22,28,57)           112.5982                                         !
 ! A103  A(22,28,58)           112.2181                                         !
 ! A104  A(22,28,59)           108.5722                                         !
 ! A105  A(57,28,58)           108.2974                                         !
 ! A106  A(57,28,59)           107.3913                                         !
 ! A107  A(58,28,59)           107.5333                                         !
 ! A108  A(19,31,42)           108.3764                                         !
 ! A109  A(19,31,43)           113.0771                                         !
 ! A110  A(19,31,44)           113.1097                                         !
 ! A111  A(42,31,43)           106.7553                                         !
 ! A112  A(42,31,44)           107.1742                                         !
 ! A113  A(43,31,44)           108.001                                          !
 ! A114  A(21,34,39)           109.6195                                         !
 ! A115  A(21,34,40)           112.5863                                         !
 ! A116  A(21,34,41)           109.2535                                         !
 ! A117  A(39,34,40)           108.9299                                         !
 ! A118  A(39,34,41)           108.8366                                         !
 ! A119  A(40,34,41)           107.5317                                         !
 ! A120  A(18,37,38)           106.9837                                         !
 ! A121  L(1,18,29,16,-1)      180.4051                                         !
 ! A122  L(36,18,37,1,-1)      183.7685                                         !
 ! A123  L(18,36,63,13,-1)     179.1871                                         !
 ! A124  L(1,18,29,16,-2)      191.165                                          !
 ! A125  L(36,18,37,1,-2)      183.6313                                         !
 ! A126  L(18,36,63,13,-2)     175.0573                                         !
 ! D1    D(3,1,2,4)             -2.7955                                         !
 ! D2    D(3,1,2,7)            178.5211                                         !
 ! D3    D(18,1,2,4)          -172.2991                                         !
 ! D4    D(18,1,2,7)             9.0175                                         !
 ! D5    D(2,1,3,6)              4.0909                                         !
 ! D6    D(2,1,3,11)          -173.1537                                         !
 ! D7    D(18,1,3,6)           173.2922                                         !
 ! D8    D(18,1,3,11)           -3.9524                                         !
 ! D9    D(2,1,18,16)         -168.3419                                         !
 ! D10   D(2,1,18,36)          -71.9257                                         !
 ! D11   D(2,1,18,37)          104.443                                          !
 ! D12   D(3,1,18,16)           21.9971                                         !
 ! D13   D(3,1,18,36)          118.4133                                         !
 ! D14   D(3,1,18,37)          -65.218                                          !
 ! D15   D(1,2,4,5)             -0.2248                                         !
 ! D16   D(1,2,4,8)            179.7519                                         !
 ! D17   D(7,2,4,5)            178.3003                                         !
 ! D18   D(7,2,4,8)             -1.723                                          !
 ! D19   D(1,2,7,12)           -41.5327                                         !
 ! D20   D(1,2,7,13)          -167.0817                                         !
 ! D21   D(1,2,7,14)            75.6063                                         !
 ! D22   D(4,2,7,12)           139.8443                                         !
 ! D23   D(4,2,7,13)            14.2953                                         !
 ! D24   D(4,2,7,14)          -103.0167                                         !
 ! D25   D(1,3,6,5)             -2.3726                                         !
 ! D26   D(1,3,6,10)           178.8561                                         !
 ! D27   D(11,3,6,5)           174.6683                                         !
 ! D28   D(11,3,6,10)           -4.103                                          !
 ! D29   D(1,3,11,15)           88.2622                                         !
 ! D30   D(1,3,11,16)          -22.3372                                         !
 ! D31   D(1,3,11,17)         -152.7876                                         !
 ! D32   D(6,3,11,15)          -88.8698                                         !
 ! D33   D(6,3,11,16)          160.5307                                         !
 ! D34   D(6,3,11,17)           30.0804                                         !
 ! D35   D(2,4,5,6)              1.8337                                         !
 ! D36   D(2,4,5,9)           -179.3671                                         !
 ! D37   D(8,4,5,6)           -178.1428                                         !
 ! D38   D(8,4,5,9)              0.6564                                         !
 ! D39   D(4,5,6,3)             -0.5659                                         !
 ! D40   D(4,5,6,10)           178.1929                                         !
 ! D41   D(9,5,6,3)           -179.3662                                         !
 ! D42   D(9,5,6,10)            -0.6073                                         !
 ! D43   D(2,7,12,19)          -69.3322                                         !
 ! D44   D(2,7,12,21)          167.3332                                         !
 ! D45   D(13,7,12,19)          55.6201                                         !
 ! D46   D(13,7,12,21)         -67.7145                                         !
 ! D47   D(14,7,12,19)         172.8401                                         !
 ! D48   D(14,7,12,21)          49.5055                                         !
 ! D49   D(3,11,16,18)          33.5201                                         !
 ! D50   D(3,11,16,20)         159.1716                                         !
 ! D51   D(3,11,16,22)         -87.0224                                         !
 ! D52   D(15,11,16,18)        -79.1892                                         !
 ! D53   D(15,11,16,20)         46.4623                                         !
 ! D54   D(15,11,16,22)        160.2683                                         !
 ! D55   D(17,11,16,18)        162.5319                                         !
 ! D56   D(17,11,16,20)        -71.8167                                         !
 ! D57   D(17,11,16,22)         41.9894                                         !
 ! D58   D(7,12,19,30)          64.2003                                         !
 ! D59   D(7,12,19,31)         -61.8085                                         !
 ! D60   D(7,12,19,32)         174.8288                                         !
 ! D61   D(21,12,19,30)       -174.9014                                         !
 ! D62   D(21,12,19,31)         59.0899                                         !
 ! D63   D(21,12,19,32)        -64.2728                                         !
 ! D64   D(7,12,21,33)         -57.9003                                         !
 ! D65   D(7,12,21,34)        -178.5191                                         !
 ! D66   D(7,12,21,35)          57.2457                                         !
 ! D67   D(19,12,21,33)        179.6104                                         !
 ! D68   D(19,12,21,34)         58.9917                                         !
 ! D69   D(19,12,21,35)        -65.2436                                         !
 ! D70   D(11,16,18,1)         -26.0399                                         !
 ! D71   D(11,16,18,29)        142.7951                                         !
 ! D72   D(11,16,18,36)       -131.4256                                         !
 ! D73   D(11,16,18,37)         51.9793                                         !
 ! D74   D(20,16,18,1)        -136.2535                                         !
 ! D75   D(20,16,18,29)         32.5816                                         !
 ! D76   D(20,16,18,36)        118.3609                                         !
 ! D77   D(20,16,18,37)        -58.2342                                         !
 ! D78   D(22,16,18,1)          82.6076                                         !
 ! D79   D(22,16,18,29)       -108.5574                                         !
 ! D80   D(22,16,18,36)        -22.7781                                         !
 ! D81   D(22,16,18,37)        160.6269                                         !
 ! D82   D(11,16,20,23)        -84.5507                                         !
 ! D83   D(11,16,20,24)        158.7339                                         !
 ! D84   D(11,16,20,25)         35.0246                                         !
 ! D85   D(18,16,20,23)         22.5651                                         !
 ! D86   D(18,16,20,24)        -94.1503                                         !
 ! D87   D(18,16,20,25)        142.1404                                         !
 ! D88   D(22,16,20,23)        166.4507                                         !
 ! D89   D(22,16,20,24)         49.7353                                         !
 ! D90   D(22,16,20,25)        -73.974                                          !
 ! D91   D(11,16,22,26)         55.428                                          !
 ! D92   D(11,16,22,27)        -63.5303                                         !
 ! D93   D(11,16,22,28)        173.0883                                         !
 ! D94   D(18,16,22,26)        -49.7563                                         !
 ! D95   D(18,16,22,27)       -168.7146                                         !
 ! D96   D(18,16,22,28)         67.9039                                         !
 ! D97   D(20,16,22,26)        164.4064                                         !
 ! D98   D(20,16,22,27)         45.4481                                         !
 ! D99   D(20,16,22,28)        -77.9334                                         !
 ! D100  D(1,18,37,38)        -174.2637                                         !
 ! D101  D(16,18,37,38)        102.2664                                         !
 ! D102  D(29,18,37,38)          4.6611                                         !
 ! D103  D(12,19,31,42)       -179.001                                          !
 ! D104  D(12,19,31,43)         62.8519                                         !
 ! D105  D(12,19,31,44)        -60.3122                                         !
 ! D106  D(30,19,31,42)         57.808                                          !
 ! D107  D(30,19,31,43)        -60.3391                                         !
 ! D108  D(30,19,31,44)        176.4968                                         !
 ! D109  D(32,19,31,42)        -57.6753                                         !
 ! D110  D(32,19,31,43)       -175.8224                                         !
 ! D111  D(32,19,31,44)         61.0134                                         !
 ! D112  D(16,20,23,45)        179.8878                                         !
 ! D113  D(16,20,23,46)         59.3512                                         !
 ! D114  D(16,20,23,47)        -60.6641                                         !
 ! D115  D(24,20,23,45)        -62.0015                                         !
 ! D116  D(24,20,23,46)        177.4619                                         !
 ! D117  D(24,20,23,47)         57.4466                                         !
 ! D118  D(25,20,23,45)         57.2452                                         !
 ! D119  D(25,20,23,46)        -63.2914                                         !
 ! D120  D(25,20,23,47)        176.6933                                         !
 ! D121  D(16,20,24,48)        168.3239                                         !
 ! D122  D(16,20,24,49)         49.9557                                         !
 ! D123  D(16,20,24,50)        -72.7368                                         !
 ! D124  D(23,20,24,48)         51.6129                                         !
 ! D125  D(23,20,24,49)        -66.7554                                         !
 ! D126  D(23,20,24,50)        170.5522                                         !
 ! D127  D(25,20,24,48)        -66.3183                                         !
 ! D128  D(25,20,24,49)        175.3135                                         !
 ! D129  D(25,20,24,50)         52.621                                          !
 ! D130  D(16,20,25,51)        179.1873                                         !
 ! D131  D(16,20,25,52)         59.7512                                         !
 ! D132  D(16,20,25,53)        -63.113                                          !
 ! D133  D(23,20,25,51)        -61.6597                                         !
 ! D134  D(23,20,25,52)        178.9042                                         !
 ! D135  D(23,20,25,53)         56.04                                           !
 ! D136  D(24,20,25,51)         55.8231                                         !
 ! D137  D(24,20,25,52)        -63.613                                          !
 ! D138  D(24,20,25,53)        173.5229                                         !
 ! D139  D(12,21,34,39)         51.0137                                         !
 ! D140  D(12,21,34,40)        -70.4057                                         !
 ! D141  D(12,21,34,41)        170.1958                                         !
 ! D142  D(33,21,34,39)        -67.9164                                         !
 ! D143  D(33,21,34,40)        170.6642                                         !
 ! D144  D(33,21,34,41)         51.2657                                         !
 ! D145  D(35,21,34,39)        174.7851                                         !
 ! D146  D(35,21,34,40)         53.3657                                         !
 ! D147  D(35,21,34,41)        -66.0329                                         !
 ! D148  D(16,22,26,60)        174.7294                                         !
 ! D149  D(16,22,26,61)         55.4067                                         !
 ! D150  D(16,22,26,62)        -66.7137                                         !
 ! D151  D(27,22,26,60)        -62.771                                          !
 ! D152  D(27,22,26,61)        177.9064                                         !
 ! D153  D(27,22,26,62)         55.786                                          !
 ! D154  D(28,22,26,60)         55.3803                                         !
 ! D155  D(28,22,26,61)        -63.9423                                         !
 ! D156  D(28,22,26,62)        173.9373                                         !
 ! D157  D(16,22,27,54)        -68.7604                                         !
 ! D158  D(16,22,27,55)        172.7141                                         !
 ! D159  D(16,22,27,56)         54.1644                                         !
 ! D160  D(26,22,27,54)        172.9823                                         !
 ! D161  D(26,22,27,55)         54.4569                                         !
 ! D162  D(26,22,27,56)        -64.0929                                         !
 ! D163  D(28,22,27,54)         55.4795                                         !
 ! D164  D(28,22,27,55)        -63.046                                          !
 ! D165  D(28,22,27,56)        178.4042                                         !
 ! D166  D(16,22,28,57)         69.229                                          !
 ! D167  D(16,22,28,58)        -53.274                                          !
 ! D168  D(16,22,28,59)       -171.9949                                         !
 ! D169  D(26,22,28,57)       -173.9842                                         !
 ! D170  D(26,22,28,58)         63.5127                                         !
 ! D171  D(26,22,28,59)        -55.2081                                         !
 ! D172  D(27,22,28,57)        -56.6105                                         !
 ! D173  D(27,22,28,58)       -179.1135                                         !
 ! D174  D(27,22,28,59)         62.1656                                         !
 --------------------------------------------------------------------------------
 Stoichiometry    C20H37N2O2PRu
 Framework group  C1[X(C20H37N2O2PRu)]
 Deg. of freedom   183
 Full point group                 C1      NOp   1
 Largest Abelian subgroup         C1      NOp   1
 Largest concise Abelian subgroup C1      NOp   1
                         Standard orientation:                         
 ---------------------------------------------------------------------
 Center     Atomic      Atomic             Coordinates (Angstroms)
 Number     Number       Type             X           Y           Z
 ---------------------------------------------------------------------
      1          7           0       -0.760118    1.357018    0.060738
      2          6           0       -1.988082    1.760186    0.411301
      3          6           0        0.145610    2.211683   -0.439334
      4          6           0       -2.359107    3.096524    0.325304
      5          6           0       -1.415011    4.014828   -0.133166
      6          6           0       -0.155504    3.572479   -0.524487
      7          6           0       -2.864320    0.651431    0.915825
      8          1           0       -3.363915    3.410354    0.610354
      9          1           0       -1.669223    5.074137   -0.203515
     10          1           0        0.587026    4.270301   -0.913431
     11          6           0        1.425747    1.612954   -0.940350
     12          7           0       -2.710875   -0.578887    0.109036
     13          1           0       -3.916953    0.978071    0.972233
     14          1           0       -2.541569    0.402954    1.940003
     15          1           0        1.240371    1.354713   -1.997009
     16         15           0        1.764372   -0.065143   -0.172202
     17          1           0        2.262641    2.323264   -0.880303
     18         44           0       -0.402781   -0.733105    0.000887
     19          6           0       -3.280974   -0.394880   -1.246052
     20          6           0        2.985285   -0.860389   -1.403684
     21          6           0       -3.355959   -1.690118    0.840912
     22          6           0        2.685849    0.379176    1.439161
     23          6           0        2.160821   -1.502960   -2.521208
     24          6           0        3.767160   -1.975206   -0.707599
     25          6           0        3.946682    0.148991   -2.035609
     26          6           0        1.783305    1.347860    2.213247
     27          6           0        4.029793    1.070135    1.204190
     28          6           0        2.903331   -0.866850    2.302963
     29          1           0       -0.177408   -2.288737   -0.350442
     30          1           0       -2.679908    0.381938   -1.736124
     31          6           0       -4.770860   -0.099120   -1.321832
     32          1           0       -3.045986   -1.307896   -1.806748
     33          1           0       -2.861289   -1.746893    1.820754
     34          6           0       -3.242361   -3.026680    0.140653
     35          1           0       -4.418025   -1.442177    1.033169
     36          6           0       -0.363407   -1.290631    1.733837
     37          8           0       -0.552410   -0.244212   -2.029433
     38          1           0       -0.519538   -1.071458   -2.521091
     39          1           0       -2.191544   -3.215706   -0.126672
     40          1           0       -3.857419   -3.080264   -0.769831
     41          1           0       -3.584786   -3.821873    0.819105
     42          1           0       -5.052600   -0.005930   -2.381527
     43          1           0       -5.047940    0.848742   -0.835224
     44          1           0       -5.392557   -0.898108   -0.889219
     45          1           0        2.853510   -1.966374   -3.244061
     46          1           0        1.533881   -0.767694   -3.042036
     47          1           0        1.497242   -2.278577   -2.113553
     48          1           0        4.307781   -2.558434   -1.471512
     49          1           0        3.093958   -2.665581   -0.176585
     50          1           0        4.514403   -1.594510    0.002008
     51          1           0        4.624427   -0.389638   -2.719363
     52          1           0        4.570134    0.676904   -1.303599
     53          1           0        3.411407    0.896762   -2.638456
     54          1           0        4.777407    0.397678    0.762441
     55          1           0        4.429611    1.407194    2.175391
     56          1           0        3.940934    1.960741    0.563577
     57          1           0        3.625365   -1.564232    1.862217
     58          1           0        1.969708   -1.410192    2.489235
     59          1           0        3.304711   -0.550871    3.280716
     60          1           0        2.244431    1.550159    3.193945
     61          1           0        0.783368    0.927863    2.385440
     62          1           0        1.669942    2.313226    1.697928
     63          8           0       -0.397073   -1.720728    2.822296
 ---------------------------------------------------------------------
 Rotational constants (GHZ):           0.2608377           0.1548225           0.1367279
 General basis read from cards:  (5D, 7F)
 ======================================================================================================
                                       Pseudopotential Parameters
 ======================================================================================================
  Center     Atomic      Valence      Angular      Power
  Number     Number     Electrons     Momentum     of R      Exponent        Coefficient   SO-Coeffient
 ======================================================================================================
    1          7
                                   No pseudopotential on this center.
    2          6
                                   No pseudopotential on this center.
    3          6
                                   No pseudopotential on this center.
    4          6
                                   No pseudopotential on this center.
    5          6
                                   No pseudopotential on this center.
    6          6
                                   No pseudopotential on this center.
    7          6
                                   No pseudopotential on this center.
    8          1
                                   No pseudopotential on this center.
    9          1
                                   No pseudopotential on this center.
   10          1
                                   No pseudopotential on this center.
   11          6
                                   No pseudopotential on this center.
   12          7
                                   No pseudopotential on this center.
   13          1
                                   No pseudopotential on this center.
   14          1
                                   No pseudopotential on this center.
   15          1
                                   No pseudopotential on this center.
   16         15
                                   No pseudopotential on this center.
   17          1
                                   No pseudopotential on this center.
   18         44           16
                                      G and up 
                                                     2        1.0000000        0.00000000    0.00000000
                                      S - G
                                                     2       11.1052690      209.82297100    0.00000000
                                                     2        5.4147450       30.65472600    0.00000000
                                      P - G
                                                     2        9.7712710      146.33618200    0.00000000
                                                     2        5.0739910       24.12787700    0.00000000
                                      D - G
                                                     2        7.6714230       67.51589700    0.00000000
                                                     2        4.1365650        9.87010400    0.00000000
                                      F - G
                                                     2       11.3600000      -28.34061600    0.00000000
                                                     2        5.6800000       -4.94462900    0.00000000
   19          6
                                   No pseudopotential on this center.
   20          6
                                   No pseudopotential on this center.
   21          6
                                   No pseudopotential on this center.
   22          6
                                   No pseudopotential on this center.
   23          6
                                   No pseudopotential on this center.
   24          6
                                   No pseudopotential on this center.
   25          6
                                   No pseudopotential on this center.
   26          6
                                   No pseudopotential on this center.
   27          6
                                   No pseudopotential on this center.
   28          6
                                   No pseudopotential on this center.
   29          1
                                   No pseudopotential on this center.
   30          1
                                   No pseudopotential on this center.
   31          6
                                   No pseudopotential on this center.
   32          1
                                   No pseudopotential on this center.
   33          1
                                   No pseudopotential on this center.
   34          6
                                   No pseudopotential on this center.
   35          1
                                   No pseudopotential on this center.
   36          6
                                   No pseudopotential on this center.
   37          8
                                   No pseudopotential on this center.
   38          1
                                   No pseudopotential on this center.
   39          1
                                   No pseudopotential on this center.
   40          1
                                   No pseudopotential on this center.
   41          1
                                   No pseudopotential on this center.
   42          1
                                   No pseudopotential on this center.
   43          1
                                   No pseudopotential on this center.
   44          1
                                   No pseudopotential on this center.
   45          1
                                   No pseudopotential on this center.
   46          1
                                   No pseudopotential on this center.
   47          1
                                   No pseudopotential on this center.
   48          1
                                   No pseudopotential on this center.
   49          1
                                   No pseudopotential on this center.
   50          1
                                   No pseudopotential on this center.
   51          1
                                   No pseudopotential on this center.
   52          1
                                   No pseudopotential on this center.
   53          1
                                   No pseudopotential on this center.
   54          1
                                   No pseudopotential on this center.
   55          1
                                   No pseudopotential on this center.
   56          1
                                   No pseudopotential on this center.
   57          1
                                   No pseudopotential on this center.
   58          1
                                   No pseudopotential on this center.
   59          1
                                   No pseudopotential on this center.
   60          1
                                   No pseudopotential on this center.
   61          1
                                   No pseudopotential on this center.
   62          1
                                   No pseudopotential on this center.
   63          8
                                   No pseudopotential on this center.
 ======================================================================================================
 There are  1473 symmetry adapted cartesian basis functions of A   symmetry.
 There are  1308 symmetry adapted basis functions of A   symmetry.
  1308 basis functions,  2037 primitive gaussians,  1473 cartesian basis functions
   109 alpha electrons      109 beta electrons
       nuclear repulsion energy      3254.0827998639 Hartrees.
 NAtoms=   63 NActive=   63 NUniq=   63 SFac= 1.00D+00 NAtFMM=   60 NAOKFM=T Big=T
 Integral buffers will be    131072 words long.
 Raffenetti 2 integral format.
 Two-electron integral symmetry is turned on.
 Nuclear repulsion after empirical dispersion term =     3253.9888897122 Hartrees.
 ------------------------------------------------------------------------------
 Polarizable Continuum Model (PCM)
 =================================
 Model                : PCM.
 Atomic radii         : SMD-Coulomb.
 Polarization charges : Total charges.
 Charge compensation  : None.
 Solution method      : On-the-fly selection.
 Cavity type          : VdW (van der Waals Surface) (Alpha=1.000).
 Cavity algorithm     : GePol (No added spheres)
                        Default sphere list used, NSphG=   63.
                        Lebedev-Laikov grids with approx.  5.0 points / Ang**2.
                        Smoothing algorithm: York/Karplus (Gamma=1.0000).
                        Polarization charges: spherical gaussians, with
                                              point-specific exponents (IZeta= 3).
                        Self-potential: point-specific (ISelfS= 7).
                        Self-field    : sphere-specific E.n sum rule (ISelfD= 2).
 Solvent              : Water, Eps=  78.355300 Eps(inf)=   1.777849
 ------------------------------------------------------------------------------
 ------------------------------------------------------------------------------
 Atomic radii for non-electrostatic terms: SMD-CDS.
 ------------------------------------------------------------------------------
 Nuclear repulsion after PCM non-electrostatic terms =     3254.0065321550 Hartrees.
 One-electron integrals computed using PRISM.
   1 Symmetry operations used in ECPInt.
 ECPInt:  NShTT=  119316 NPrTT=  422118 LenC2=  102722 LenP2D=  239049.
 LDataN:  DoStor=T MaxTD1= 7 Len=  274
 Number of processors reduced to  11 by ecpmxn.
 NBasis=  1308 RedAO= T EigKep=  3.91D-05  NBF=  1308
 NBsUse=  1308 1.00D-06 EigRej= -1.00D+00 NBFU=  1308
 Defaulting to unpruned grid for atomic number  44.
 ExpMin= 1.60D-02 ExpMax= 3.12D+05 ExpMxC= 9.87D+02 IAcc=3 IRadAn=         5 AccDes= 0.00D+00
 Harris functional with IExCor= 1009 and IRadAn=       5 diagonalized for initial guess.
 HarFok:  IExCor= 1009 AccDes= 0.00D+00 IRadAn=         5 IDoV= 1 UseB2=F ITyADJ=14
 ICtDFT=  3500011 ScaDFX=  1.000000  1.000000  1.000000  1.000000
 Defaulting to unpruned grid for atomic number  44.
 FoFCou: FMM=F IPFlag=           0 FMFlag=      100000 FMFlg1=        2001
         NFxFlg=           0 DoJE=T BraDBF=F KetDBF=T FulRan=T
         wScrn=  0.000000 ICntrl=       500 IOpCl=  0 I1Cent=   200000004 NGrid=           0
         NMat0=    1 NMatS0=      1 NMatT0=    0 NMatD0=    1 NMtDS0=    0 NMtDT0=    0
 Petite list used in FoFCou.
 Requested convergence on RMS density matrix=1.00D-08 within 128 cycles.
 Requested convergence on MAX density matrix=1.00D-06.
 Requested convergence on             energy=1.00D-06.
 No special actions if energy rises.
 Defaulting to unpruned grid for atomic number  44.
 Defaulting to unpruned grid for atomic number  44.
 Defaulting to unpruned grid for atomic number  44.
 Defaulting to unpruned grid for atomic number  44.
 Defaulting to unpruned grid for atomic number  44.
 Defaulting to unpruned grid for atomic number  44.
 Defaulting to unpruned grid for atomic number  44.
 Defaulting to unpruned grid for atomic number  44.
 Defaulting to unpruned grid for atomic number  44.
 Defaulting to unpruned grid for atomic number  44.
 Defaulting to unpruned grid for atomic number  44.
 Defaulting to unpruned grid for atomic number  44.
 Defaulting to unpruned grid for atomic number  44.
 Defaulting to unpruned grid for atomic number  44.
 Defaulting to unpruned grid for atomic number  44.
 Defaulting to unpruned grid for atomic number  44.
 Inv3:  Mode=1 IEnd=    45372963.
 Iteration    1 A*A^-1 deviation from unit magnitude is 8.66D-15 for   3880.
 Iteration    1 A*A^-1 deviation from orthogonality  is 4.08D-15 for   2181   1191.
 Iteration    1 A^-1*A deviation from unit magnitude is 9.10D-15 for   3880.
 Iteration    1 A^-1*A deviation from orthogonality  is 3.29D-15 for   2443   2437.
 EnCoef did     2 forward-backward iterations
 Error on total polarization charges =  0.07972
 SCF Done:  E(RPBE1PBE) =  -1479.80987799     A.U. after   17 cycles
            NFock= 17  Conv=0.17D-08     -V/T= 2.0493
 SMD-CDS (non-electrostatic) energy       (kcal/mol) =      11.07
 (included in total energy above)
 DoSCS=F DFT=T ScalE2(SS,OS)=  1.000000  1.000000
 Range of M.O.s used for correlation:     1  1308
 NBasis=  1308 NAE=   109 NBE=   109 NFC=     0 NFV=     0
 NROrb=   1308 NOA=   109 NOB=   109 NVA=  1199 NVB=  1199

 **** Warning!!: The largest alpha MO coefficient is  0.16553870D+02

 NEqPCM:  Using equilibrium solvation (IEInf=0, Eps=  78.3553, EpsInf=   1.7778)
          Differentiating once with respect to magnetic field using GIAOs.
          Electric field/nuclear overlap derivatives assumed to be zero.
 Defaulting to unpruned grid for atomic number  44.
   1 Symmetry operations used in ECPInt.
 ECPInt:  NShTT=  119316 NPrTT=  422118 LenC2=  119317 LenP2D=  422118.
 LDataN:  DoStor=T MaxTD1= 8 Len=  415
 Number of processors reduced to   7 by ecpmxn.
 FoFJK:  IHMeth= 1 ICntrl=    6127 DoSepK=F KAlg= 0 I1Cent=           0 FoldK=F
 IRaf=         1 NMat=       1 IRICut=       1 DoRegI=T DoRafI=F ISym2E= 0 IDoP0=0 IntGTp=1.
 Defaulting to unpruned grid for atomic number  44.
 Defaulting to unpruned grid for atomic number  44.
 Defaulting to unpruned grid for atomic number  44.
 Defaulting to unpruned grid for atomic number  44.
 Defaulting to unpruned grid for atomic number  44.
 Defaulting to unpruned grid for atomic number  44.
 Defaulting to unpruned grid for atomic number  44.
 Defaulting to unpruned grid for atomic number  44.
 Defaulting to unpruned grid for atomic number  44.
 Defaulting to unpruned grid for atomic number  44.
 Defaulting to unpruned grid for atomic number  44.
 Defaulting to unpruned grid for atomic number  44.
 Defaulting to unpruned grid for atomic number  44.
 Defaulting to unpruned grid for atomic number  44.
 Defaulting to unpruned grid for atomic number  44.
 Defaulting to unpruned grid for atomic number  44.
          There are     3 degrees of freedom in the 1st order CPHF.  IDoFFX=0 NUNeed=     3.
      3 vectors produced by pass  0 Test12= 4.36D-12 3.33D-08 XBig12= 8.42D+01 2.16D+00.
 AX will form     3 AO Fock derivatives at one time.
      3 vectors produced by pass  1 Test12= 4.36D-12 3.33D-08 XBig12= 3.96D-01 2.51D-01.
      3 vectors produced by pass  2 Test12= 4.36D-12 3.33D-08 XBig12= 6.94D-03 3.38D-02.
      3 vectors produced by pass  3 Test12= 4.36D-12 3.33D-08 XBig12= 7.70D-05 4.20D-03.
      3 vectors produced by pass  4 Test12= 4.36D-12 3.33D-08 XBig12= 3.72D-07 1.49D-04.
      3 vectors produced by pass  5 Test12= 4.36D-12 3.33D-08 XBig12= 1.89D-09 1.22D-05.
      3 vectors produced by pass  6 Test12= 4.36D-12 3.33D-08 XBig12= 3.13D-11 2.12D-06.
      3 vectors produced by pass  7 Test12= 4.36D-12 3.33D-08 XBig12= 2.35D-13 1.51D-07.
 InvSVY:  IOpt=1 It=  1 EMax= 3.55D-15
 Solved reduced A of dimension    24 with     3 vectors.
 Calculating GIAO nuclear magnetic shielding tensors.
 SCF GIAO Magnetic shielding tensor (ppm):
      1  N    Isotropic =   -49.0297   Anisotropy =   405.0113
   XX=  -147.6604   YX=     8.7159   ZX=   137.6600
   XY=    -3.0259   YY=  -145.6442   ZY=    63.3183
   XZ=   172.2514   YZ=    53.1071   ZZ=   146.2155
   Eigenvalues:  -220.3865  -147.6804   220.9778
      2  C    Isotropic =    22.9680   Anisotropy =   168.0158
   XX=   -31.0605   YX=   -34.6911   ZX=    62.1037
   XY=   -13.2711   YY=    -9.3695   ZY=    32.0513
   XZ=    56.0143   YZ=    36.1310   ZZ=   109.3339
   Eigenvalues:   -72.1196     6.0450   134.9785
      3  C    Isotropic =    19.5046   Anisotropy =   179.7695
   XX=   -44.1008   YX=    13.5621   ZX=    76.3674
   XY=     2.6271   YY=    -2.9469   ZY=    19.5632
   XZ=    77.6296   YZ=     2.5476   ZZ=   105.5613
   Eigenvalues:   -76.7765    -4.0607   139.3509
      4  C    Isotropic =    63.6959   Anisotropy =   168.6199
   XX=   -11.9075   YX=    32.2735   ZX=    58.3533
   XY=    39.4598   YY=    48.1073   ZY=     6.9516
   XZ=    52.6798   YZ=    20.2424   ZZ=   154.8880
   Eigenvalues:   -39.5560    54.5345   176.1092
      5  C    Isotropic =    44.2317   Anisotropy =   204.6184
   XX=    31.9586   YX=    27.3152   ZX=    48.7342
   XY=    25.3599   YY=   -58.1235   ZY=    27.2149
   XZ=    49.0212   YZ=    28.6320   ZZ=   158.8599
   Eigenvalues:   -66.2782    18.3294   180.6439
      6  C    Isotropic =    61.3796   Anisotropy =   167.9644
   XX=    32.5194   YX=   -30.8386   ZX=    58.3950
   XY=   -39.3073   YY=     9.6939   ZY=    38.5745
   XZ=    68.7610   YZ=    34.2182   ZZ=   141.9254
   Eigenvalues:   -41.3945    52.1774   173.3559
      7  C    Isotropic =   121.7174   Anisotropy =    49.6341
   XX=   111.5251   YX=     5.6660   ZX=   -10.7047
   XY=     8.2566   YY=   150.4350   ZY=    14.1882
   XZ=   -12.1121   YZ=    14.6276   ZZ=   103.1920
   Eigenvalues:    90.9986   119.3467   154.8068
      8  H    Isotropic =    23.6328   Anisotropy =     7.2434
   XX=    22.9133   YX=     0.1541   ZX=    -1.0909
   XY=     0.7036   YY=    28.3032   ZY=    -0.7560
   XZ=    -0.9078   YZ=    -1.1666   ZZ=    19.6820
   Eigenvalues:    19.3243    23.1124    28.4618
      9  H    Isotropic =    23.2132   Anisotropy =     4.4380
   XX=    25.5122   YX=     0.0730   ZX=    -1.9836
   XY=     0.1061   YY=    24.0442   ZY=    -0.6144
   XZ=    -1.9177   YZ=    -0.5028   ZZ=    20.0833
   Eigenvalues:    19.4002    24.0676    26.1719
     10  H    Isotropic =    23.4613   Anisotropy =     8.5175
   XX=    24.1929   YX=    -3.4142   ZX=    -0.9878
   XY=    -3.1851   YY=    26.9213   ZY=    -0.2875
   XZ=    -1.0139   YZ=    -0.2274   ZZ=    19.2697
   Eigenvalues:    18.9455    22.2987    29.1397
     11  C    Isotropic =   146.5591   Anisotropy =    44.6974
   XX=   162.9798   YX=   -19.6660   ZX=   -11.1461
   XY=   -11.3084   YY=   152.9455   ZY=    -7.7042
   XZ=   -24.4020   YZ=    -8.2364   ZZ=   123.7520
   Eigenvalues:   112.4600   150.8600   176.3574
     12  N    Isotropic =   192.3978   Anisotropy =    81.2416
   XX=   181.0327   YX=    10.4041   ZX=   -12.2405
   XY=    14.9050   YY=   243.4145   ZY=    16.6682
   XZ=     7.5034   YZ=     0.4516   ZZ=   152.7461
   Eigenvalues:   151.4963   179.1382   246.5589
     13  H    Isotropic =    26.8785   Anisotropy =     8.5176
   XX=    28.9513   YX=    -2.7112   ZX=    -1.0793
   XY=    -3.3286   YY=    28.2815   ZY=     2.6630
   XZ=    -1.5766   YZ=     2.8920   ZZ=    23.4028
   Eigenvalues:    22.1453    25.9333    32.5570
     14  H    Isotropic =    26.9481   Anisotropy =     3.8030
   XX=    25.7392   YX=    -0.3034   ZX=    -0.3651
   XY=    -0.5074   YY=    26.1712   ZY=     2.6107
   XZ=    -0.9802   YZ=    -0.3890   ZZ=    28.9339
   Eigenvalues:    25.4958    25.8651    29.4834
     15  H    Isotropic =    26.7716   Anisotropy =     3.0182
   XX=    25.3699   YX=     0.1831   ZX=    -0.0528
   XY=     0.0764   YY=    26.5070   ZY=    -0.3005
   XZ=    -2.0318   YZ=    -0.1219   ZZ=    28.4378
   Eigenvalues:    25.0466    26.4844    28.7837
     16  P    Isotropic =   198.7053   Anisotropy =   226.7579
   XX=   317.8200   YX=    42.3832   ZX=   -34.1505
   XY=    97.0651   YY=   166.4818   ZY=    13.4668
   XZ=   -48.8708   YZ=    14.1172   ZZ=   111.8142
   Eigenvalues:    91.1278   155.1110   349.8773
     17  H    Isotropic =    27.4464   Anisotropy =     7.6998
   XX=    29.0147   YX=     1.9645   ZX=    -0.7419
   XY=     1.2328   YY=    31.2296   ZY=    -1.3616
   XZ=    -1.2482   YZ=    -2.8305   ZZ=    22.0951
   Eigenvalues:    21.5812    28.1784    32.5797
     18  Ru   Isotropic =  -383.2827   Anisotropy =   147.2933
   XX=  -317.0066   YX=   -40.0399   ZX=    52.8009
   XY=   -19.1958   YY=  -426.0271   ZY=   -28.1691
   XZ=    48.4923   YZ=   -14.8573   ZZ=  -406.8145
   Eigenvalues:  -440.1272  -424.6339  -285.0872
     19  C    Isotropic =   143.1387   Anisotropy =    25.3183
   XX=   151.4124   YX=    -5.7495   ZX=    12.0511
   XY=    -9.3609   YY=   122.9526   ZY=     0.9637
   XZ=     0.6068   YZ=     3.9901   ZZ=   155.0510
   Eigenvalues:   120.6096   148.7889   160.0175
     20  C    Isotropic =   146.6395   Anisotropy =    26.8562
   XX=   150.2439   YX=    -6.9030   ZX=    -9.9904
   XY=    -8.6909   YY=   136.4415   ZY=     6.7897
   XZ=    -7.4192   YZ=     7.6659   ZZ=   153.2332
   Eigenvalues:   132.3374   143.0375   164.5436
     21  C    Isotropic =   134.7246   Anisotropy =    54.9710
   XX=   118.0018   YX=    17.7071   ZX=   -15.1991
   XY=    19.4413   YY=   153.4017   ZY=   -14.8338
   XZ=   -11.3889   YZ=   -16.2141   ZZ=   132.7704
   Eigenvalues:   107.9388   124.8631   171.3719
     22  C    Isotropic =   143.7622   Anisotropy =    27.4858
   XX=   144.7925   YX=     2.6344   ZX=     9.3191
   XY=     2.2950   YY=   135.0812   ZY=     6.7835
   XZ=    14.5032   YZ=     6.0462   ZZ=   151.4131
   Eigenvalues:   132.4195   136.7811   162.0861
     23  C    Isotropic =   154.2290   Anisotropy =    40.0789
   XX=   159.3982   YX=     9.7146   ZX=    12.4576
   XY=    13.5423   YY=   144.0729   ZY=    14.1769
   XZ=     9.4614   YZ=    18.4689   ZZ=   159.2161
   Eigenvalues:   132.8884   148.8505   180.9483
     24  C    Isotropic =   158.6078   Anisotropy =    30.8800
   XX=   153.6235   YX=   -11.6116   ZX=    11.8899
   XY=   -12.9035   YY=   162.0688   ZY=   -10.5722
   XZ=     6.3431   YZ=    -7.3635   ZZ=   160.1312
   Eigenvalues:   144.3785   152.2505   179.1945
     25  C    Isotropic =   161.1272   Anisotropy =    37.1375
   XX=   164.1361   YX=    17.3254   ZX=   -10.6336
   XY=    13.6505   YY=   164.3620   ZY=    -6.3468
   XZ=   -11.5054   YZ=   -10.5207   ZZ=   154.8836
   Eigenvalues:   146.9997   150.4965   185.8856
     26  C    Isotropic =   156.6376   Anisotropy =    37.1904
   XX=   159.7507   YX=   -15.8042   ZX=    -5.8219
   XY=   -16.7245   YY=   154.6169   ZY=    15.5969
   XZ=    -6.5488   YZ=    12.6720   ZZ=   155.5453
   Eigenvalues:   137.2398   151.2418   181.4312
     27  C    Isotropic =   160.2734   Anisotropy =    32.6357
   XX=   174.9306   YX=    10.4550   ZX=   -11.9371
   XY=    11.7916   YY=   153.0333   ZY=    -2.9068
   XZ=    -5.1617   YZ=     0.1348   ZZ=   152.8564
   Eigenvalues:   147.1942   151.5956   182.0306
     28  C    Isotropic =   159.9299   Anisotropy =    37.2471
   XX=   146.5225   YX=    -5.5458   ZX=     6.8077
   XY=    -5.3030   YY=   171.3202   ZY=   -13.5912
   XZ=     5.6743   YZ=   -17.8758   ZZ=   161.9470
   Eigenvalues:   144.3122   150.7162   184.7613
     29  H    Isotropic =    39.1930   Anisotropy =    17.5623
   XX=    47.5248   YX=     3.2199   ZX=    -3.3844
   XY=     7.0066   YY=    23.7944   ZY=    -3.7833
   XZ=    -0.6839   YZ=    -6.3215   ZZ=    46.2597
   Eigenvalues:    21.8831    44.7946    50.9012
     30  H    Isotropic =    28.4608   Anisotropy =    10.1794
   XX=    34.9293   YX=     2.2776   ZX=    -1.0437
   XY=     1.4741   YY=    22.9048   ZY=    -2.7800
   XZ=     0.5817   YZ=    -0.6702   ZZ=    27.5482
   Eigenvalues:    22.1045    28.0308    35.2471
     31  C    Isotropic =   184.6011   Anisotropy =    11.3303
   XX=   191.9588   YX=    -1.6269   ZX=    -2.0106
   XY=    -1.4466   YY=   180.0690   ZY=     1.8428
   XZ=     2.4624   YZ=     0.6626   ZZ=   181.7754
   Eigenvalues:   179.2370   182.4116   192.1546
     32  H    Isotropic =    29.1260   Anisotropy =     5.2218
   XX=    29.6906   YX=    -0.6853   ZX=     0.0905
   XY=    -1.4672   YY=    27.2113   ZY=     2.0591
   XZ=     1.6629   YZ=     4.6985   ZZ=    30.4762
   Eigenvalues:    24.7099    30.0610    32.6072
     33  H    Isotropic =    28.0754   Anisotropy =     5.2759
   XX=    26.6212   YX=     2.0939   ZX=    -0.2043
   XY=     1.5889   YY=    26.9232   ZY=    -2.5236
   XZ=     1.7759   YZ=    -1.6009   ZZ=    30.6816
   Eigenvalues:    24.2919    28.3416    31.5926
     34  C    Isotropic =   170.8718   Anisotropy =    25.1428
   XX=   172.1230   YX=     2.3431   ZX=    -9.2687
   XY=    -0.0762   YY=   184.6128   ZY=     5.8974
   XZ=    -7.7323   YZ=    13.1897   ZZ=   155.8796
   Eigenvalues:   149.7836   175.1981   187.6337
     35  H    Isotropic =    28.1672   Anisotropy =     7.9635
   XX=    31.6751   YX=     0.3682   ZX=    -3.0840
   XY=     1.7191   YY=    26.9531   ZY=    -1.7819
   XZ=    -3.3277   YZ=    -1.2037   ZZ=    25.8735
   Eigenvalues:    24.1070    26.9185    33.4762
     36  C    Isotropic =   -46.0725   Anisotropy =   457.5623
   XX=  -193.1426   YX=     0.4270   ZX=     2.2228
   XY=     2.0966   YY=  -149.9897   ZY=  -143.9451
   XZ=    -7.3654   YZ=  -153.3605   ZZ=   204.9148
   Eigenvalues:  -204.0348  -193.1518   258.9690
     37  O    Isotropic =   332.8703   Anisotropy =   108.3324
   XX=   404.8303   YX=    -2.3174   ZX=     4.0769
   XY=     8.8100   YY=   362.6118   ZY=    36.8040
   XZ=   -10.0293   YZ=     1.9067   ZZ=   231.1688
   Eigenvalues:   228.3121   365.2069   405.0919
     38  H    Isotropic =    32.9891   Anisotropy =    17.4299
   XX=    25.5227   YX=     0.0174   ZX=     0.5525
   XY=    -2.5735   YY=    38.8702   ZY=     7.7213
   XZ=     0.0965   YZ=     7.3817   ZZ=    34.5743
   Eigenvalues:    25.1992    29.1591    44.6090
     39  H    Isotropic =    29.1718   Anisotropy =     9.3324
   XX=    35.0316   YX=     1.4650   ZX=    -1.7592
   XY=    -1.1892   YY=    29.5059   ZY=     1.0721
   XZ=    -2.4788   YZ=     0.7249   ZZ=    22.9778
   Eigenvalues:    22.4982    29.6237    35.3933
     40  H    Isotropic =    29.9226   Anisotropy =     8.6172
   XX=    29.0539   YX=     2.4870   ZX=     3.8592
   XY=     2.3581   YY=    31.0748   ZY=     2.0058
   XZ=     4.2073   YZ=     2.3119   ZZ=    29.6390
   Eigenvalues:    25.2821    28.8182    35.6673
     41  H    Isotropic =    29.9515   Anisotropy =    12.2184
   XX=    27.4736   YX=     3.8436   ZX=    -1.9275
   XY=     3.3580   YY=    35.2821   ZY=    -4.0038
   XZ=    -1.4457   YZ=    -3.1256   ZZ=    27.0988
   Eigenvalues:    25.5602    26.1971    38.0971
     42  H    Isotropic =    30.8947   Anisotropy =    12.3001
   XX=    31.4827   YX=    -0.7746   ZX=     5.1701
   XY=    -0.8766   YY=    26.1902   ZY=    -1.2465
   XZ=     5.6995   YZ=    -0.8021   ZZ=    35.0111
   Eigenvalues:    26.0535    27.5358    39.0947
     43  H    Isotropic =    30.2974   Anisotropy =     9.5655
   XX=    31.9213   YX=    -4.4928   ZX=     0.2794
   XY=    -3.9325   YY=    32.6318   ZY=     3.0526
   XZ=     2.7100   YZ=     3.0887   ZZ=    26.3390
   Eigenvalues:    23.8245    30.3933    36.6744
     44  H    Isotropic =    30.2786   Anisotropy =     9.8435
   XX=    35.1483   YX=     3.9571   ZX=    -0.2114
   XY=     3.0261   YY=    29.4355   ZY=    -3.0130
   XZ=     1.4064   YZ=    -2.3538   ZZ=    26.2521
   Eigenvalues:    24.2100    29.7849    36.8410
     45  H    Isotropic =    30.6539   Anisotropy =    10.2202
   XX=    29.2259   YX=    -0.9820   ZX=    -1.8784
   XY=    -1.5187   YY=    29.0635   ZY=     4.2220
   XZ=    -3.1660   YZ=     4.9792   ZZ=    33.6722
   Eigenvalues:    26.1923    28.3019    37.4673
     46  H    Isotropic =    29.1361   Anisotropy =     6.7128
   XX=    32.1930   YX=    -3.7879   ZX=     1.1358
   XY=    -3.0432   YY=    24.6470   ZY=     0.5281
   XZ=     0.4420   YZ=     0.4969   ZZ=    30.5684
   Eigenvalues:    23.2510    30.5461    33.6113
     47  H    Isotropic =    29.5042   Anisotropy =     6.5341
   XX=    31.7080   YX=     2.7605   ZX=    -2.7347
   XY=     3.0157   YY=    29.7943   ZY=     1.0961
   XZ=    -2.0586   YZ=     3.5519   ZZ=    27.0102
   Eigenvalues:    24.0345    30.6178    33.8602
     48  H    Isotropic =    30.3056   Anisotropy =    10.4910
   XX=    30.8404   YX=    -4.8127   ZX=    -1.9329
   XY=    -4.9597   YY=    31.4725   ZY=     3.0025
   XZ=    -1.8798   YZ=     2.4393   ZZ=    28.6040
   Eigenvalues:    26.1037    27.5135    37.2996
     49  H    Isotropic =    29.8016   Anisotropy =     6.2444
   XX=    28.3474   YX=    -1.3421   ZX=    -1.4395
   XY=    -0.1085   YY=    32.7682   ZY=    -2.5642
   XZ=    -1.8860   YZ=    -2.6464   ZZ=    28.2891
   Eigenvalues:    25.8011    29.6392    33.9645
     50  H    Isotropic =    29.5478   Anisotropy =     7.3887
   XX=    31.0261   YX=    -1.6519   ZX=     3.7160
   XY=    -3.1029   YY=    27.2584   ZY=     1.1696
   XZ=     3.6575   YZ=     1.9555   ZZ=    30.3589
   Eigenvalues:    24.3407    29.8290    34.4736
     51  H    Isotropic =    30.3686   Anisotropy =    11.2621
   XX=    32.7716   YX=    -0.6876   ZX=    -5.6396
   XY=    -0.0099   YY=    27.3131   ZY=     0.4768
   XZ=    -6.0545   YZ=     1.3113   ZZ=    31.0210
   Eigenvalues:    25.8409    27.3882    37.8767
     52  H    Isotropic =    29.3379   Anisotropy =     7.0636
   XX=    30.6628   YX=     4.2435   ZX=     0.6532
   XY=     4.2247   YY=    27.4532   ZY=     3.0909
   XZ=    -1.0169   YZ=     1.9969   ZZ=    29.8976
   Eigenvalues:    23.7258    30.2408    34.0469
     53  H    Isotropic =    29.9746   Anisotropy =     7.2973
   XX=    28.8317   YX=    -0.1588   ZX=    -2.7217
   XY=    -1.3599   YY=    31.0047   ZY=    -3.7745
   XZ=    -2.2030   YZ=    -4.3295   ZZ=    30.0875
   Eigenvalues:    24.9930    30.0914    34.8395
     54  H    Isotropic =    29.5099   Anisotropy =     7.7525
   XX=    34.0094   YX=    -1.6641   ZX=    -1.9766
   XY=    -0.0782   YY=    26.4119   ZY=     2.6683
   XZ=    -1.0122   YZ=     3.0390   ZZ=    28.1082
   Eigenvalues:    24.2790    29.5724    34.6782
     55  H    Isotropic =    30.2699   Anisotropy =    10.9132
   XX=    32.1227   YX=     3.1450   ZX=     3.9119
   XY=     3.3222   YY=    27.6800   ZY=     3.1168
   XZ=     4.1687   YZ=     2.6482   ZZ=    31.0070
   Eigenvalues:    25.7769    27.4874    37.5454
     56  H    Isotropic =    29.5365   Anisotropy =     7.1533
   XX=    29.2488   YX=     4.0049   ZX=    -0.2255
   XY=     2.9066   YY=    31.2333   ZY=    -2.7419
   XZ=     1.3494   YZ=    -2.1947   ZZ=    28.1274
   Eigenvalues:    25.2110    29.0931    34.3054
     57  H    Isotropic =    29.6486   Anisotropy =     7.3810
   XX=    28.3291   YX=    -4.4772   ZX=    -0.7554
   XY=    -5.4408   YY=    30.5959   ZY=     0.8919
   XZ=     0.4851   YZ=    -0.3368   ZZ=    30.0209
   Eigenvalues:    24.3748    30.0017    34.5693
     58  H    Isotropic =    29.4538   Anisotropy =     7.5497
   XX=    32.3681   YX=     2.6043   ZX=     0.8519
   XY=     3.7493   YY=    28.2034   ZY=    -3.4091
   XZ=    -0.0301   YZ=    -4.1666   ZZ=    27.7898
   Eigenvalues:    23.4699    30.4046    34.4869
     59  H    Isotropic =    30.6043   Anisotropy =    10.9316
   XX=    28.6608   YX=    -0.5046   ZX=     3.8824
   XY=    -0.6940   YY=    27.3769   ZY=    -1.7086
   XZ=     4.4389   YZ=    -0.9326   ZZ=    35.7753
   Eigenvalues:    26.7439    27.1771    37.8921
     60  H    Isotropic =    30.9164   Anisotropy =    10.3860
   XX=    28.4108   YX=    -0.2507   ZX=     1.3100
   XY=     0.5221   YY=    28.6270   ZY=     4.4461
   XZ=     3.0100   YZ=     3.2514   ZZ=    35.7114
   Eigenvalues:    26.5619    28.3469    37.8404
     61  H    Isotropic =    29.9221   Anisotropy =     7.1884
   XX=    34.4287   YX=     1.8060   ZX=     0.2346
   XY=     1.1794   YY=    25.5982   ZY=     2.8276
   XZ=     0.2547   YZ=    -0.3710   ZZ=    29.7395
   Eigenvalues:    25.0579    29.9941    34.7144
     62  H    Isotropic =    30.6546   Anisotropy =     6.7207
   XX=    28.8669   YX=    -3.4686   ZX=     2.1889
   XY=    -1.5335   YY=    33.5872   ZY=     0.0652
   XZ=     5.2358   YZ=     0.1520   ZZ=    29.5096
   Eigenvalues:    25.0164    31.8123    35.1350
     63  O    Isotropic =   -40.4064   Anisotropy =   557.6887
   XX=  -211.4891   YX=     3.8957   ZX=   -13.8673
   XY=    -4.8148   YY=  -172.3721   ZY=  -189.0683
   XZ=    -6.2963   YZ=  -182.6262   ZZ=   262.6420
   Eigenvalues:  -241.4723  -211.1328   331.3861
 End of Minotr F.D. properties file   721 does not exist.
 End of Minotr F.D. properties file   722 does not exist.
 End of Minotr F.D. properties file   788 does not exist.

 **********************************************************************

            Population analysis using the SCF density.

 **********************************************************************

 Orbital symmetries:
       Occupied  (A) (A) (A) (A) (A) (A) (A) (A) (A) (A) (A) (A)
                 (A) (A) (A) (A) (A) (A) (A) (A) (A) (A) (A) (A)
                 (A) (A) (A) (A) (A) (A) (A) (A) (A) (A) (A) (A)
                 (A) (A) (A) (A) (A) (A) (A) (A) (A) (A) (A) (A)
                 (A) (A) (A) (A) (A) (A) (A) (A) (A) (A) (A) (A)
                 (A) (A) (A) (A) (A) (A) (A) (A) (A) (A) (A) (A)
                 (A) (A) (A) (A) (A) (A) (A) (A) (A) (A) (A) (A)
                 (A) (A) (A) (A) (A) (A) (A) (A) (A) (A) (A) (A)
                 (A) (A) (A) (A) (A) (A) (A) (A) (A) (A) (A) (A)
                 (A)
       Virtual   (A) (A) (A) (A) (A) (A) (A) (A) (A) (A) (A) (A)
                 (A) (A) (A) (A) (A) (A) (A) (A) (A) (A) (A) (A)
                 (A) (A) (A) (A) (A) (A) (A) (A) (A) (A) (A) (A)
                 (A) (A) (A) (A) (A) (A) (A) (A) (A) (A) (A) (A)
                 (A) (A) (A) (A) (A) (A) (A) (A) (A) (A) (A) (A)
                 (A) (A) (A) (A) (A) (A) (A) (A) (A) (A) (A) (A)
                 (A) (A) (A) (A) (A) (A) (A) (A) (A) (A) (A) (A)
                 (A) (A) (A) (A) (A) (A) (A) (A) (A) (A) (A) (A)
                 (A) (A) (A) (A) (A) (A) (A) (A) (A) (A) (A) (A)
                 (A) (A) (A) (A) (A) (A) (A) (A) (A) (A) (A) (A)
                 (A) (A) (A) (A) (A) (A) (A) (A) (A) (A) (A) (A)
                 (A) (A) (A) (A) (A) (A) (A) (A) (A) (A) (A) (A)
                 (A) (A) (A) (A) (A) (A) (A) (A) (A) (A) (A) (A)
                 (A) (A) (A) (A) (A) (A) (A) (A) (A) (A) (A) (A)
                 (A) (A) (A) (A) (A) (A) (A) (A) (A) (A) (A) (A)
                 (A) (A) (A) (A) (A) (A) (A) (A) (A) (A) (A) (A)
                 (A) (A) (A) (A) (A) (A) (A) (A) (A) (A) (A) (A)
                 (A) (A) (A) (A) (A) (A) (A) (A) (A) (A) (A) (A)
                 (A) (A) (A) (A) (A) (A) (A) (A) (A) (A) (A) (A)
                 (A) (A) (A) (A) (A) (A) (A) (A) (A) (A) (A) (A)
                 (A) (A) (A) (A) (A) (A) (A) (A) (A) (A) (A) (A)
                 (A) (A) (A) (A) (A) (A) (A) (A) (A) (A) (A) (A)
                 (A) (A) (A) (A) (A) (A) (A) (A) (A) (A) (A) (A)
                 (A) (A) (A) (A) (A) (A) (A) (A) (A) (A) (A) (A)
                 (A) (A) (A) (A) (A) (A) (A) (A) (A) (A) (A) (A)
                 (A) (A) (A) (A) (A) (A) (A) (A) (A) (A) (A) (A)
                 (A) (A) (A) (A) (A) (A) (A) (A) (A) (A) (A) (A)
                 (A) (A) (A) (A) (A) (A) (A) (A) (A) (A) (A) (A)
                 (A) (A) (A) (A) (A) (A) (A) (A) (A) (A) (A) (A)
                 (A) (A) (A) (A) (A) (A) (A) (A) (A) (A) (A) (A)
                 (A) (A) (A) (A) (A) (A) (A) (A) (A) (A) (A) (A)
                 (A) (A) (A) (A) (A) (A) (A) (A) (A) (A) (A) (A)
                 (A) (A) (A) (A) (A) (A) (A) (A) (A) (A) (A) (A)
                 (A) (A) (A) (A) (A) (A) (A) (A) (A) (A) (A) (A)
                 (A) (A) (A) (A) (A) (A) (A) (A) (A) (A) (A) (A)
                 (A) (A) (A) (A) (A) (A) (A) (A) (A) (A) (A) (A)
                 (A) (A) (A) (A) (A) (A) (A) (A) (A) (A) (A) (A)
                 (A) (A) (A) (A) (A) (A) (A) (A) (A) (A) (A) (A)
                 (A) (A) (A) (A) (A) (A) (A) (A) (A) (A) (A) (A)
                 (A) (A) (A) (A) (A) (A) (A) (A) (A) (A) (A) (A)
                 (A) (A) (A) (A) (A) (A) (A) (A) (A) (A) (A) (A)
                 (A) (A) (A) (A) (A) (A) (A) (A) (A) (A) (A) (A)
                 (A) (A) (A) (A) (A) (A) (A) (A) (A) (A) (A) (A)
                 (A) (A) (A) (A) (A) (A) (A) (A) (A) (A) (A) (A)
                 (A) (A) (A) (A) (A) (A) (A) (A) (A) (A) (A) (A)
                 (A) (A) (A) (A) (A) (A) (A) (A) (A) (A) (A) (A)
                 (A) (A) (A) (A) (A) (A) (A) (A) (A) (A) (A) (A)
                 (A) (A) (A) (A) (A) (A) (A) (A) (A) (A) (A) (A)
                 (A) (A) (A) (A) (A) (A) (A) (A) (A) (A) (A) (A)
                 (A) (A) (A) (A) (A) (A) (A) (A) (A) (A) (A) (A)
                 (A) (A) (A) (A) (A) (A) (A) (A) (A) (A) (A) (A)
                 (A) (A) (A) (A) (A) (A) (A) (A) (A) (A) (A) (A)
                 (A) (A) (A) (A) (A) (A) (A) (A) (A) (A) (A) (A)
                 (A) (A) (A) (A) (A) (A) (A) (A) (A) (A) (A) (A)
                 (A) (A) (A) (A) (A) (A) (A) (A) (A) (A) (A) (A)
                 (A) (A) (A) (A) (A) (A) (A) (A) (A) (A) (A) (A)
                 (A) (A) (A) (A) (A) (A) (A) (A) (A) (A) (A) (A)
                 (A) (A) (A) (A) (A) (A) (A) (A) (A) (A) (A) (A)
                 (A) (A) (A) (A) (A) (A) (A) (A) (A) (A) (A) (A)
                 (A) (A) (A) (A) (A) (A) (A) (A) (A) (A) (A) (A)
                 (A) (A) (A) (A) (A) (A) (A) (A) (A) (A) (A) (A)
[...]
 Alpha virt. eigenvalues --    1.65554   1.66189   1.66296   1.66962   1.67422
 Alpha virt. eigenvalues --    1.68314   1.68833   1.70099   1.70430   1.70892
 Alpha virt. eigenvalues --    1.71237   1.72458   1.72778   1.73974   1.74287
 Alpha virt. eigenvalues --    1.74902   1.75517   1.76245   1.76704   1.77884
 Alpha virt. eigenvalues --    1.78825   1.79387   1.79741   1.80346   1.81592
 Alpha virt. eigenvalues --    1.82329   1.83426   1.84689   1.86431   1.86928
 Alpha virt. eigenvalues --    1.87077   1.88173   1.88545   1.89762   1.91409
 Alpha virt. eigenvalues --    1.91960   1.93287   1.93773   1.94739   1.95592
 Alpha virt. eigenvalues --    1.95800   1.97887   1.98813   1.99727   2.00334
 Alpha virt. eigenvalues --    2.01264   2.02221   2.03817   2.05425   2.06553
 Alpha virt. eigenvalues --    2.07480   2.07741   2.09379   2.10165   2.13163
 Alpha virt. eigenvalues --    2.14401   2.14955   2.16720   2.19690   2.20914
 Alpha virt. eigenvalues --    2.22448   2.23603   2.25557   2.26200   2.27489
 Alpha virt. eigenvalues --    2.30447   2.31236   2.32154   2.33428   2.34091
 Alpha virt. eigenvalues --    2.34907   2.35780   2.36394   2.36877   2.37419
 Alpha virt. eigenvalues --    2.37645   2.38740   2.39544   2.40110   2.40724
 Alpha virt. eigenvalues --    2.41558   2.42164   2.43060   2.43748   2.44889
 Alpha virt. eigenvalues --    2.45425   2.45556   2.45816   2.46898   2.47333
 Alpha virt. eigenvalues --    2.48472   2.48886   2.49796   2.50107   2.51212
 Alpha virt. eigenvalues --    2.51650   2.52561   2.53165   2.53797   2.54366
 Alpha virt. eigenvalues --    2.54921   2.55319   2.55566   2.56431   2.56737
 Alpha virt. eigenvalues --    2.57486   2.58073   2.58562   2.59819   2.60223
 Alpha virt. eigenvalues --    2.60540   2.60895   2.61863   2.63006   2.63372
 Alpha virt. eigenvalues --    2.63493   2.63896   2.64765   2.65051   2.65608
 Alpha virt. eigenvalues --    2.65988   2.67012   2.67524   2.67992   2.68435
 Alpha virt. eigenvalues --    2.68615   2.69132   2.69799   2.70232   2.70528
 Alpha virt. eigenvalues --    2.70697   2.71041   2.71674   2.72168   2.72676
 Alpha virt. eigenvalues --    2.73223   2.73775   2.74231   2.74907   2.75562
 Alpha virt. eigenvalues --    2.76003   2.76524   2.77020   2.77429   2.78270
 Alpha virt. eigenvalues --    2.78474   2.78739   2.78936   2.79313   2.80035
 Alpha virt. eigenvalues --    2.80144   2.81099   2.81276   2.81425   2.81924
 Alpha virt. eigenvalues --    2.82583   2.82605   2.83557   2.83852   2.84177
 Alpha virt. eigenvalues --    2.84491   2.84998   2.85093   2.85884   2.86424
 Alpha virt. eigenvalues --    2.87029   2.87273   2.87351   2.87748   2.88066
 Alpha virt. eigenvalues --    2.88847   2.89263   2.89756   2.90326   2.91089
 Alpha virt. eigenvalues --    2.91814   2.91992   2.92317   2.92319   2.93633
 Alpha virt. eigenvalues --    2.94233   2.94348   2.94768   2.95413   2.95822
 Alpha virt. eigenvalues --    2.96155   2.96928   2.96980   2.97653   2.98111
 Alpha virt. eigenvalues --    2.98182   2.98879   2.99510   3.00112   3.00437
 Alpha virt. eigenvalues --    3.00982   3.01138   3.01395   3.01976   3.02286
 Alpha virt. eigenvalues --    3.02479   3.03228   3.03764   3.04100   3.04330
 Alpha virt. eigenvalues --    3.04708   3.05050   3.05671   3.05877   3.05965
 Alpha virt. eigenvalues --    3.06613   3.06878   3.07092   3.07608   3.08104
 Alpha virt. eigenvalues --    3.08313   3.08731   3.08922   3.09504   3.09577
 Alpha virt. eigenvalues --    3.10043   3.10172   3.10275   3.10702   3.11153
 Alpha virt. eigenvalues --    3.11572   3.11848   3.12272   3.12562   3.12894
 Alpha virt. eigenvalues --    3.13121   3.13234   3.13591   3.13868   3.14359
 Alpha virt. eigenvalues --    3.14566   3.15402   3.15679   3.15868   3.16424
 Alpha virt. eigenvalues --    3.16659   3.17336   3.17574   3.18069   3.18447
 Alpha virt. eigenvalues --    3.18671   3.19024   3.19329   3.19621   3.19949
 Alpha virt. eigenvalues --    3.20356   3.20887   3.21227   3.21524   3.22211
 Alpha virt. eigenvalues --    3.22346   3.22896   3.23062   3.23956   3.24410
 Alpha virt. eigenvalues --    3.24829   3.25452   3.25720   3.26270   3.26318
 Alpha virt. eigenvalues --    3.26748   3.27439   3.28242   3.28446   3.28964
 Alpha virt. eigenvalues --    3.29467   3.30206   3.30369   3.30936   3.31020
 Alpha virt. eigenvalues --    3.31542   3.31822   3.32599   3.32952   3.33060
 Alpha virt. eigenvalues --    3.33692   3.33911   3.34059   3.34583   3.34984
 Alpha virt. eigenvalues --    3.35118   3.35360   3.36064   3.36342   3.37054
 Alpha virt. eigenvalues --    3.37253   3.37894   3.38037   3.38647   3.39261
 Alpha virt. eigenvalues --    3.39472   3.39930   3.40293   3.40445   3.40656
 Alpha virt. eigenvalues --    3.41141   3.41926   3.42125   3.42932   3.43251
 Alpha virt. eigenvalues --    3.43511   3.44016   3.44321   3.44394   3.44865
 Alpha virt. eigenvalues --    3.45266   3.45794   3.46103   3.46159   3.46719
 Alpha virt. eigenvalues --    3.46994   3.47072   3.47552   3.48365   3.48547
 Alpha virt. eigenvalues --    3.48659   3.49313   3.49956   3.50139   3.50401
 Alpha virt. eigenvalues --    3.50745   3.50994   3.51294   3.52090   3.52408
 Alpha virt. eigenvalues --    3.52845   3.53027   3.53407   3.53661   3.54191
 Alpha virt. eigenvalues --    3.54606   3.54865   3.55963   3.56050   3.56919
 Alpha virt. eigenvalues --    3.57082   3.57523   3.57658   3.58121   3.58612
 Alpha virt. eigenvalues --    3.59149   3.59553   3.60102   3.60322   3.60695
 Alpha virt. eigenvalues --    3.60780   3.61698   3.62143   3.62635   3.62974
 Alpha virt. eigenvalues --    3.63316   3.63626   3.64142   3.64599   3.65675
 Alpha virt. eigenvalues --    3.66297   3.66569   3.67236   3.68411   3.68870
 Alpha virt. eigenvalues --    3.69349   3.70059   3.70906   3.71190   3.71296
 Alpha virt. eigenvalues --    3.71879   3.72460   3.72927   3.73389   3.73447
 Alpha virt. eigenvalues --    3.74161   3.74610   3.75045   3.75392   3.76022
 Alpha virt. eigenvalues --    3.76715   3.76887   3.77370   3.77711   3.77990
 Alpha virt. eigenvalues --    3.78837   3.79303   3.79694   3.79923   3.80755
 Alpha virt. eigenvalues --    3.80874   3.81449   3.82445   3.82961   3.83088
 Alpha virt. eigenvalues --    3.83775   3.84926   3.85159   3.86304   3.86402
 Alpha virt. eigenvalues --    3.86711   3.87178   3.88428   3.88907   3.89274
 Alpha virt. eigenvalues --    3.89718   3.90133   3.90683   3.91342   3.91552
 Alpha virt. eigenvalues --    3.91972   3.93028   3.93548   3.94088   3.94561
 Alpha virt. eigenvalues --    3.95210   3.95576   3.95900   3.96039   3.96751
 Alpha virt. eigenvalues --    3.97149   3.97458   3.98198   3.98889   3.99261
 Alpha virt. eigenvalues --    3.99587   3.99868   4.00450   4.00964   4.01895
 Alpha virt. eigenvalues --    4.02268   4.02529   4.02860   4.03713   4.04102
 Alpha virt. eigenvalues --    4.05029   4.05155   4.05575   4.05920   4.06081
 Alpha virt. eigenvalues --    4.06657   4.07510   4.07531   4.08557   4.08816
 Alpha virt. eigenvalues --    4.09288   4.09848   4.10443   4.10784   4.10933
 Alpha virt. eigenvalues --    4.11430   4.11754   4.12226   4.12581   4.12783
 Alpha virt. eigenvalues --    4.13066   4.13319   4.13471   4.13670   4.14181
 Alpha virt. eigenvalues --    4.14954   4.15633   4.15980   4.16470   4.16705
 Alpha virt. eigenvalues --    4.17009   4.17150   4.17751   4.18446   4.18930
 Alpha virt. eigenvalues --    4.19548   4.20083   4.20117   4.21035   4.21066
 Alpha virt. eigenvalues --    4.21132   4.21798   4.22295   4.22450   4.22622
 Alpha virt. eigenvalues --    4.22975   4.23414   4.23650   4.24539   4.24841
 Alpha virt. eigenvalues --    4.25120   4.25617   4.26174   4.26667   4.26808
 Alpha virt. eigenvalues --    4.27509   4.27623   4.28459   4.28725   4.28924
 Alpha virt. eigenvalues --    4.29408   4.30096   4.30390   4.30901   4.31442
 Alpha virt. eigenvalues --    4.31598   4.32018   4.32139   4.32775   4.33289
 Alpha virt. eigenvalues --    4.33547   4.33819   4.34498   4.34758   4.34894
 Alpha virt. eigenvalues --    4.35503   4.35889   4.36447   4.36663   4.37028
 Alpha virt. eigenvalues --    4.37710   4.37939   4.38646   4.38961   4.39994
 Alpha virt. eigenvalues --    4.40196   4.41086   4.41281   4.41637   4.42069
 Alpha virt. eigenvalues --    4.42605   4.43318   4.44190   4.44572   4.45029
 Alpha virt. eigenvalues --    4.45848   4.46211   4.46650   4.47456   4.47794
 Alpha virt. eigenvalues --    4.48485   4.48712   4.49653   4.50406   4.51089
 Alpha virt. eigenvalues --    4.51809   4.52361   4.52903   4.54288   4.54795
 Alpha virt. eigenvalues --    4.55484   4.55896   4.56924   4.57434   4.57975
 Alpha virt. eigenvalues --    4.58459   4.58695   4.59136   4.60772   4.61584
 Alpha virt. eigenvalues --    4.62273   4.63387   4.64508   4.65382   4.67639
 Alpha virt. eigenvalues --    4.69017   4.69342   4.70302   4.71299   4.72240
 Alpha virt. eigenvalues --    4.73174   4.74372   4.74819   4.75554   4.76533
 Alpha virt. eigenvalues --    4.78023   4.78271   4.78844   4.80310   4.80581
 Alpha virt. eigenvalues --    4.82053   4.82178   4.82218   4.82531   4.84013
 Alpha virt. eigenvalues --    4.84227   4.84536   4.85148   4.85627   4.85976
 Alpha virt. eigenvalues --    4.86428   4.87086   4.87375   4.87758   4.88321
 Alpha virt. eigenvalues --    4.88965   4.89369   4.89877   4.90195   4.90987
 Alpha virt. eigenvalues --    4.91157   4.91664   4.91833   4.92302   4.93321
 Alpha virt. eigenvalues --    4.93865   4.94405   4.94554   4.95852   4.96510
 Alpha virt. eigenvalues --    4.96589   4.97084   4.98205   4.99050   5.00352
 Alpha virt. eigenvalues --    5.00990   5.01587   5.02932   5.04016   5.04344
 Alpha virt. eigenvalues --    5.05763   5.06420   5.07788   5.08409   5.08809
 Alpha virt. eigenvalues --    5.09386   5.09765   5.10512   5.10721   5.12218
 Alpha virt. eigenvalues --    5.14041   5.14393   5.14547   5.15140   5.16029
 Alpha virt. eigenvalues --    5.16103   5.18245   5.18778   5.19193   5.19867
 Alpha virt. eigenvalues --    5.20838   5.21077   5.21626   5.21907   5.22485
 Alpha virt. eigenvalues --    5.23714   5.24129   5.24423   5.24928   5.25295
 Alpha virt. eigenvalues --    5.25680   5.26503   5.26950   5.27600   5.28418
 Alpha virt. eigenvalues --    5.28930   5.30167   5.30557   5.31012   5.32193
 Alpha virt. eigenvalues --    5.32321   5.33327   5.33691   5.34411   5.35514
 Alpha virt. eigenvalues --    5.36024   5.36335   5.36814   5.37443   5.37832
 Alpha virt. eigenvalues --    5.38308   5.38582   5.39404   5.39619   5.39773
 Alpha virt. eigenvalues --    5.40460   5.40942   5.41680   5.42086   5.42346
 Alpha virt. eigenvalues --    5.43297   5.43482   5.43915   5.44062   5.45154
 Alpha virt. eigenvalues --    5.46533   5.46893   5.47186   5.48293   5.48648
 Alpha virt. eigenvalues --    5.49027   5.49933   5.50980   5.51025   5.51620
 Alpha virt. eigenvalues --    5.52195   5.52589   5.53644   5.53992   5.55120
 Alpha virt. eigenvalues --    5.55534   5.56132   5.56466   5.57198   5.58194
 Alpha virt. eigenvalues --    5.58355   5.59369   5.60569   5.61178   5.62075
 Alpha virt. eigenvalues --    5.62511   5.64993   5.68502   5.69198   5.73246
 Alpha virt. eigenvalues --    5.78099   5.78441   5.86603   5.88155   5.91056
 Alpha virt. eigenvalues --    5.93024   5.96287   5.98656   5.99281   6.00577
 Alpha virt. eigenvalues --    6.01252   6.01843   6.02654   6.03061   6.03605
 Alpha virt. eigenvalues --    6.04458   6.04816   6.05841   6.06146   6.06458
 Alpha virt. eigenvalues --    6.08178   6.08855   6.10518   6.11454   6.12334
 Alpha virt. eigenvalues --    6.12788   6.13995   6.16030   6.17286   6.21425
 Alpha virt. eigenvalues --    6.24275   6.26905   6.28169   6.32017   6.34325
 Alpha virt. eigenvalues --    6.34986   6.40549   6.42005   6.58265   6.59361
 Alpha virt. eigenvalues --    6.61852   6.71933   6.77403   6.78488   6.80016
 Alpha virt. eigenvalues --    6.82652   6.86823   6.92428   7.06942   7.23761
 Alpha virt. eigenvalues --    7.38005   8.21666   9.75101   9.89529  10.05529
 Alpha virt. eigenvalues --   10.67391  12.21467  12.35017  12.38787  12.87732
 Alpha virt. eigenvalues --   12.94666  13.01377  13.21306  13.30306  13.41251
 Alpha virt. eigenvalues --   13.50265  13.62046  13.68353  13.74825  13.77080
 Alpha virt. eigenvalues --   13.83888  13.85967  13.92092  13.95809  15.09663
 Alpha virt. eigenvalues --   35.42897  35.67034  35.81565  46.32372
          Condensed to atoms (all electrons):
 Mulliken charges:
               1
     1  N   -0.162006
     2  C    0.078759
     3  C    0.073177
     4  C   -0.162572
     5  C   -0.131240
     6  C   -0.147920
     7  C   -0.085040
     8  H    0.161543
     9  H    0.161961
    10  H    0.161943
    11  C   -0.231778
    12  N   -0.218963
    13  H    0.127309
    14  H    0.162331
    15  H    0.170355
    16  P    0.202245
    17  H    0.147965
    18  Ru   0.486481
    19  C   -0.094480
    20  C   -0.002189
    21  C   -0.114081
    22  C   -0.008223
    23  C   -0.355993
    24  C   -0.344019
    25  C   -0.334063
    26  C   -0.350310
    27  C   -0.335676
    28  C   -0.354157
    29  H   -0.295488
    30  H    0.144679
    31  C   -0.326267
    32  H    0.131975
    33  H    0.135572
    34  C   -0.336738
    35  H    0.114237
    36  C   -0.159967
    37  O   -0.703567
    38  H    0.268428
    39  H    0.132377
    40  H    0.112424
    41  H    0.118279
    42  H    0.115429
    43  H    0.108771
    44  H    0.109689
    45  H    0.108793
    46  H    0.116818
    47  H    0.135989
    48  H    0.107497
    49  H    0.123092
    50  H    0.121311
    51  H    0.108192
    52  H    0.123564
    53  H    0.114444
    54  H    0.118886
    55  H    0.108294
    56  H    0.118247
    57  H    0.119823
    58  H    0.136346
    59  H    0.107078
    60  H    0.112238
    61  H    0.143911
    62  H    0.118794
    63  O   -0.314511
 Sum of Mulliken charges =  -0.00000
 Mulliken charges with hydrogens summed into heavy atoms:
               1
     1  N   -0.162006
     2  C    0.078759
     3  C    0.073177
     4  C   -0.001029
     5  C    0.030721
     6  C    0.014023
     7  C    0.204601
    11  C    0.086543
    12  N   -0.218963
    16  P    0.202245
    18  Ru   0.190993
    19  C    0.182174
    20  C   -0.002189
    21  C    0.135727
    22  C   -0.008223
    23  C    0.005607
    24  C    0.007882
    25  C    0.012138
    26  C    0.024633
    27  C    0.009751
    28  C    0.009089
    31  C    0.007622
    34  C    0.026342
    36  C   -0.159967
    37  O   -0.435139
    63  O   -0.314511
 Electronic spatial extent (au):  <R**2>=           9462.8207
 Charge=              0.0000 electrons
 Dipole moment (field-independent basis, Debye):
    X=             -0.5556    Y=              8.1071    Z=              0.2714  Tot=              8.1306
 Quadrupole moment (field-independent basis, Debye-Ang):
   XX=           -146.3682   YY=           -171.6114   ZZ=           -197.0011
   XY=             -1.6470   XZ=             -5.7886   YZ=              6.4308
 Traceless Quadrupole moment (field-independent basis, Debye-Ang):
   XX=             25.2920   YY=              0.0488   ZZ=            -25.3408
   XY=             -1.6470   XZ=             -5.7886   YZ=              6.4308
 Octapole moment (field-independent basis, Debye-Ang**2):
  XXX=            -71.4590  YYY=             74.0337  ZZZ=            -16.0439  XYY=            -33.9983
  XXY=             -2.0508  XXZ=             10.4335  XZZ=              2.7448  YZZ=             -2.7150
  YYZ=            -21.0727  XYZ=             -5.3374
 Hexadecapole moment (field-independent basis, Debye-Ang**3):
 XXXX=          -6867.3351 YYYY=          -3060.2908 ZZZZ=          -2409.0540 XXXY=            -18.6414
 XXXZ=            -45.5616 YYYX=            -62.8784 YYYZ=            -51.0737 ZZZX=             12.6825
 ZZZY=             78.5385 XXYY=          -1651.9767 XXZZ=          -1537.3849 YYZZ=           -998.2713
 XXYZ=             31.3502 YYXZ=            -35.4247 ZZXY=             21.5208
 N-N= 3.254006532155D+03 E-N=-9.945725964209D+03  KE= 1.410247781140D+03
 1\1\GINC-NODE241\SP\RPBE1PBE\GenECP\C20H37N2O2P1Ru1\JS1212\12-Nov-2018
 \0\\# nmr genecp pbe1pbe EmpiricalDispersion=GD3BJ scrf=(SMD,solvent=w
 ater) geom=allcheck\\Title Card Required\\0,1\N,0,-0.737347415,1.41226
 71181,-0.1407977609\C,0,-1.9518848844,1.8647666349,0.1960695719\C,0,0.
 1806961005,2.2123170202,-0.7046978203\C,0,-2.2946688677,3.2008277104,0
 .0278594789\C,0,-1.3363761702,4.0661804776,-0.4990495032\C,0,-0.091654
 9741,3.5712561631,-0.8743925116\C,0,-2.8459392836,0.8108393523,0.78051
 69352\H,0,-3.2888627585,3.5549450983,0.3027449623\H,0,-1.5682408697,5.
 1242298582,-0.6349897801\H,0,0.6611639868,4.2256640456,-1.3155248742\C
 ,0,1.4412991536,1.5538509978,-1.1796141975\N,0,-2.7291643618,-0.472008
 4747,0.0533295925\H,0,-3.8904320424,1.1640982183,0.826933483\H,0,-2.51
 63090845,0.6215856791,1.8151071887\H,0,1.2375486063,1.232376008,-2.215
 3362121\P,0,1.7524950219,-0.078532243,-0.3082865778\H,0,2.2941622762,2
 .2474900489,-1.1745341457\Ru,0,-0.4264650924,-0.6849023222,-0.06926438
 47\C,0,-3.3114799714,-0.3627947727,-1.3046529314\C,0,2.9407574308,-0.9
 787424852,-1.4987679381\C,0,-3.3894375909,-1.518986373,0.8623328594\C,
 0,2.702896535,0.4476859508,1.2610639329\C,0,2.0889927807,-1.6731505852
 ,-2.5635643383\C,0,3.7064870086,-2.06379557,-0.7404825388\C,0,3.916232
 7021,-0.0340804024,-2.2048300476\C,0,1.8311494616,1.4843051353,1.98052
 51487\C,0,4.0586565063,1.0915890843,0.9675966979\C,0,2.9035760623,-0.7
 447418941,2.2012118922\H,0,-0.2393692192,-2.264611813,-0.3217158357\H,
 0,-2.6995811131,0.3671065842,-1.850290585\C,0,-4.7953640613,-0.0389886
 119,-1.3834760759\H,0,-3.103282527,-1.3150789417,-1.8076517785\H,0,-2.
 8842949551,-1.5237175249,1.8384580956\C,0,-3.3135263545,-2.9000743242,
 0.2487373971\H,0,-4.4434327692,-1.2352858602,1.0494932772\C,0,-0.37828
 5372,-1.1304681233,1.6955725884\O,0,-0.5899640963,-0.3244643122,-2.125
 2209853\H,0,-0.5811120406,-1.1821741774,-2.5627150673\H,0,-2.270399853
 8,-3.1295760224,-0.0170175138\H,0,-3.9405886795,-2.9982650305,-0.64976
 18552\H,0,-3.6649849041,-3.6420178614,0.9807769326\H,0,-5.0878158256,-
 0.0078720517,-2.4439091451\H,0,-5.04577776,0.9442409761,-0.9562082335\
 H,0,-5.4290674778,-0.7942418434,-0.8935209061\H,0,2.7625978918,-2.1976
 435546,-3.2623134106\H,0,1.4719890236,-0.9589790123,-3.1240954442\H,0,
 1.4136289909,-2.4057490403,-2.0995769144\H,0,4.2249589529,-2.707035757
 2,-1.4708369733\H,0,3.0248576936,-2.7031927609,-0.1588065979\H,0,4.470
 4001408,-1.6551682089,-0.0649797351\H,0,4.5737310234,-0.6307594144,-2.
 8595444252\H,0,4.5598769977,0.5256561733,-1.5151648369\H,0,3.390145286
 3,0.6852199069,-2.8489915252\H,0,4.7860109685,0.3753962605,0.562270699
 6\H,0,4.4774679053,1.4813590194,1.9106617042\H,0,3.9815051802,1.940889
 8134,0.2717542376\H,0,3.6048262314,-1.4851601822,1.7987701223\H,0,1.96
 06409357,-1.2537638422,2.432164116\H,0,3.3235681832,-0.3756162718,3.15
 21603784\H,0,2.3084236001,1.7388567688,2.9411201825\H,0,0.8244429858,1
 .098930266,2.1901660302\H,0,1.7326517369,2.4168087867,1.405137279\O,0,
 -0.4081469849,-1.488739491,2.8098486224\\Version=ES64L-G16RevA.03\Stat
 e=1-A\HF=-1479.809878\RMSD=1.732e-09\Dipole=-0.1476275,3.1939413,-0.09
 72323\Quadrupole=18.6344233,0.6493557,-19.283779,-1.8699526,-4.5412148
 ,3.6430156\PG=C01 [X(C20H37N2O2P1Ru1)]\\@


 POCKETA-POCKETA
 BARON VON RICHTOFEN
 SLAUGHTERED THE ALLIES WITH
 HARDLY A CARE.
 KILLED EIGHTY-ONE WITH HIS
 BLOOD-COLORED TRIPLANE, THEN
 UN-AEROBATICALLY
 PLUNGED FROM THE AIR.
   -- TONY HOFFMAN
 Job cpu time:       0 days 22 hours 46 minutes 13.0 seconds.
 Elapsed time:       0 days  1 hours 30 minutes 27.2 seconds.
 File lengths (MBytes):  RWF=   1216 Int=      0 D2E=      0 Chk=    154 Scr=      1
 Normal termination of Gaussian 16 at Mon Nov 12 23:25:06 2018.
