 Entering Gaussian System, Link 0=g16
 Initial command:
 /cluster/chemistry/gaussian/g16/l1.exe "/scratch/js1212.15459/scratch/Gau-23770.inp" -scrdir="/scratch/js1212.15459/scratch/"
 Entering Link 1 = /cluster/chemistry/gaussian/g16/l1.exe PID=     23772.
  
 Copyright (c) 1988,1990,1992,1993,1995,1998,2003,2009,2016,
            Gaussian, Inc.  All Rights Reserved.
  
 This is part of the Gaussian(R) 16 program.  It is based on
 the Gaussian(R) 09 system (copyright 2009, Gaussian, Inc.),
 the Gaussian(R) 03 system (copyright 2003, Gaussian, Inc.),
 the Gaussian(R) 98 system (copyright 1998, Gaussian, Inc.),
 the Gaussian(R) 94 system (copyright 1995, Gaussian, Inc.),
 the Gaussian 92(TM) system (copyright 1992, Gaussian, Inc.),
 the Gaussian 90(TM) system (copyright 1990, Gaussian, Inc.),
 the Gaussian 88(TM) system (copyright 1988, Gaussian, Inc.),
 the Gaussian 86(TM) system (copyright 1986, Carnegie Mellon
 University), and the Gaussian 82(TM) system (copyright 1983,
 Carnegie Mellon University). Gaussian is a federally registered
 trademark of Gaussian, Inc.
  
 This software contains proprietary and confidential information,
 including trade secrets, belonging to Gaussian, Inc.
  
 This software is provided under written license and may be
 used, copied, transmitted, or stored only in accord with that
 written license.
  
 The following legend is applicable only to US Government
 contracts under FAR:
  
                    RESTRICTED RIGHTS LEGEND
  
 Use, reproduction and disclosure by the US Government is
 subject to restrictions as set forth in subparagraphs (a)
 and (c) of the Commercial Computer Software - Restricted
 Rights clause in FAR 52.227-19.
  
 Gaussian, Inc.
 340 Quinnipiac St., Bldg. 40, Wallingford CT 06492
  
  
 ---------------------------------------------------------------
 Warning -- This program may not be used in any manner that
 competes with the business of Gaussian, Inc. or will provide
 assistance to any competitor of Gaussian, Inc.  The licensee
 of this program is prohibited from giving any competitor of
 Gaussian, Inc. access to this program.  By using this program,
 the user acknowledges that Gaussian, Inc. is engaged in the
 business of creating and licensing software in the field of
 computational chemistry and represents and warrants to the
 licensee that it is not a competitor of Gaussian, Inc. and that
 it will not use this program in any manner prohibited above.
 ---------------------------------------------------------------
  

 Cite this work as:
 Gaussian 16, Revision A.03,
 M. J. Frisch, G. W. Trucks, H. B. Schlegel, G. E. Scuseria, 
 M. A. Robb, J. R. Cheeseman, G. Scalmani, V. Barone, 
 G. A. Petersson, H. Nakatsuji, X. Li, M. Caricato, A. V. Marenich, 
 J. Bloino, B. G. Janesko, R. Gomperts, B. Mennucci, H. P. Hratchian, 
 J. V. Ortiz, A. F. Izmaylov, J. L. Sonnenberg, D. Williams-Young, 
 F. Ding, F. Lipparini, F. Egidi, J. Goings, B. Peng, A. Petrone, 
 T. Henderson, D. Ranasinghe, V. G. Zakrzewski, J. Gao, N. Rega, 
 G. Zheng, W. Liang, M. Hada, M. Ehara, K. Toyota, R. Fukuda, 
 J. Hasegawa, M. Ishida, T. Nakajima, Y. Honda, O. Kitao, H. Nakai, 
 T. Vreven, K. Throssell, J. A. Montgomery, Jr., J. E. Peralta, 
 F. Ogliaro, M. J. Bearpark, J. J. Heyd, E. N. Brothers, K. N. Kudin, 
 V. N. Staroverov, T. A. Keith, R. Kobayashi, J. Normand, 
 K. Raghavachari, A. P. Rendell, J. C. Burant, S. S. Iyengar, 
 J. Tomasi, M. Cossi, J. M. Millam, M. Klene, C. Adamo, R. Cammi, 
 J. W. Ochterski, R. L. Martin, K. Morokuma, O. Farkas, 
 J. B. Foresman, and D. J. Fox, Gaussian, Inc., Wallingford CT, 2016.
 
 ******************************************
 Gaussian 16:  ES64L-G16RevA.03 25-Dec-2016
                12-Nov-2018 
 ******************************************
 %rwf=/scratch/js1212.15459/2-Full-TPy-B-GPOF.rwf
 %nosave
 %nprocshared=16
 Will use up to   16 processors via shared memory.
 %mem=3000MB
 %chk=/scratch/js1212.15459/2-Full-TPy-B-GPOF.chk
 ---------------------------------------------------
 # opt freq genecp pbe1pbe EmpiricalDispersion=GD3BJ
 ---------------------------------------------------
 1/18=20,19=15,26=3,38=1/1,3;
 2/9=110,12=2,17=6,18=5,40=1/2;
 3/5=7,11=2,16=1,17=8,25=1,30=1,71=1,74=-13,124=41/1,2,3;
 4//1;
 5/5=2,38=5/2;
 6/7=2,8=2,9=2,10=2,28=1/1;
 7//1,2,3,16;
 1/18=20,19=15,26=3/3(2);
 2/9=110/2;
 99//99;
 2/9=110/2;
 3/5=7,6=1,11=2,16=1,17=8,25=1,30=1,71=1,74=-13,82=7,124=41/1,2,3;
 4/5=5,16=3,69=1/1;
 5/5=2,38=5/2;
 7//1,2,3,16;
 1/18=20,19=15,26=3/3(-5);
 2/9=110/2;
 6/7=2,8=2,9=2,10=2,19=2,28=1/1;
 99/9=1/99;
 -------------------
 Title Card Required
 -------------------
 Symbolic Z-matrix:
 Charge =  0 Multiplicity = 1
 N                    -0.76649   1.41843  -0.07154 
 C                    -2.01036   1.85279   0.2167 
 C                     0.14794   2.26376  -0.59987 
 C                    -2.37124   3.18384   0.05372 
 C                    -1.41729   4.08485  -0.41404 
 C                    -0.15168   3.61575  -0.7532 
 C                    -2.92299   0.78241   0.73207 
 H                    -3.38574   3.50509   0.29284 
 H                    -1.66577   5.14026  -0.53683 
 H                     0.60447   4.28902  -1.15894 
 C                     1.43193   1.64925  -1.06883 
 N                    -2.68842  -0.50404   0.0448 
 H                    -3.97678   1.10586   0.66433 
 H                    -2.69735   0.61853   1.79906 
 H                     1.29444   1.38772  -2.13247 
 P                     1.73612  -0.00383  -0.23635 
 H                     2.26951   2.35979  -1.00852 
 Ru                   -0.40632  -0.58507   0.12753 
 C                    -3.13183  -0.4363   -1.37016 
 C                     2.76388  -0.97221  -1.51 
 C                    -3.38459  -1.5738    0.79678 
 C                     2.81626   0.48715   1.25846 
 C                     1.79173  -1.5453   -2.54607 
 C                     3.42342  -2.15521  -0.79768 
 C                     3.81352  -0.12407  -2.23086 
 C                     2.06226   1.60908   1.98221 
 C                     4.20708   1.00144   0.88987 
 C                     2.94913  -0.70018   2.21525 
 H                    -0.22466  -2.20914  -0.10236 
 H                    -2.58034   0.39612  -1.82922 
 C                    -4.62669  -0.27589  -1.60563 
 H                    -2.75557  -1.34493  -1.85563 
 H                    -2.93436  -1.5837    1.80041 
 C                    -3.24221  -2.94035   0.16087 
 H                    -4.45015  -1.29713   0.92821 
 C                    -0.4288   -0.79162   2.01232 
 O                    -0.389    -0.34012  -1.94662 
 H                    -0.27278  -1.20238  -2.36224 
 H                    -2.17636  -3.12248  -0.07293 
 H                    -3.84319  -3.03847  -0.75619 
 H                    -3.59904  -3.70383   0.86859 
 H                    -4.80781  -0.21749  -2.68943 
 H                    -5.03495   0.6451   -1.16155 
 H                    -5.20838  -1.12709  -1.2223 
 H                     2.37599  -2.14707  -3.26386 
 H                     1.27463  -0.75585  -3.11162 
 H                     1.03384  -2.17538  -2.0557 
 H                     3.86573  -2.82409  -1.55452 
 H                     2.67531  -2.73449  -0.23591 
 H                     4.23239  -1.84668  -0.12066 
 H                     4.32954  -0.7589   -2.97077 
 H                     4.57883   0.28829  -1.56235 
 H                     3.35837   0.70854  -2.78858 
 H                     4.85268   0.20776   0.48993 
 H                     4.69648   1.39306   1.79777 
 H                     4.17387   1.82343   0.15832 
 H                     3.52252  -1.52815   1.78067 
 H                     1.9698   -1.08747   2.52084 
 H                     3.47731  -0.36929   3.12537 
 H                     2.57082   1.82424   2.93635 
 H                     1.02509   1.32521   2.2088 
 H                     2.04757   2.54327   1.40092 
 O                    -0.46674  -0.98768   3.15824 
 

 GradGradGradGradGradGradGradGradGradGradGradGradGradGradGradGradGradGrad
 Berny optimization.
 Initialization pass.
                           ----------------------------
                           !    Initial Parameters    !
                           ! (Angstroms and Degrees)  !
 --------------------------                            --------------------------
 ! Name  Definition              Value          Derivative Info.                !
 --------------------------------------------------------------------------------
 ! R1    R(1,2)                  1.3487         estimate D2E/DX2                !
 ! R2    R(1,3)                  1.3527         estimate D2E/DX2                !
 ! R3    R(1,18)                 2.0453         estimate D2E/DX2                !
 ! R4    R(2,4)                  1.3887         estimate D2E/DX2                !
 ! R5    R(2,7)                  1.4981         estimate D2E/DX2                !
 ! R6    R(3,6)                  1.3933         estimate D2E/DX2                !
 ! R7    R(3,11)                 1.4987         estimate D2E/DX2                !
 ! R8    R(4,5)                  1.3931         estimate D2E/DX2                !
 ! R9    R(4,8)                  1.0907         estimate D2E/DX2                !
 ! R10   R(5,6)                  1.3917         estimate D2E/DX2                !
 ! R11   R(5,9)                  1.0912         estimate D2E/DX2                !
 ! R12   R(6,10)                 1.0907         estimate D2E/DX2                !
 ! R13   R(7,12)                 1.4773         estimate D2E/DX2                !
 ! R14   R(7,13)                 1.1044         estimate D2E/DX2                !
 ! R15   R(7,14)                 1.1028         estimate D2E/DX2                !
 ! R16   R(11,15)                1.1039         estimate D2E/DX2                !
 ! R17   R(11,16)                1.8757         estimate D2E/DX2                !
 ! R18   R(11,17)                1.1            estimate D2E/DX2                !
 ! R19   R(12,19)                1.4844         estimate D2E/DX2                !
 ! R20   R(12,21)                1.4814         estimate D2E/DX2                !
 ! R21   R(16,18)                2.2495         estimate D2E/DX2                !
 ! R22   R(16,20)                1.9016         estimate D2E/DX2                !
 ! R23   R(16,22)                1.9085         estimate D2E/DX2                !
 ! R24   R(18,29)                1.6503         estimate D2E/DX2                !
 ! R25   R(18,36)                1.8962         estimate D2E/DX2                !
 ! R26   R(18,37)                2.0886         estimate D2E/DX2                !
 ! R27   R(19,30)                1.099          estimate D2E/DX2                !
 ! R28   R(19,31)                1.5218         estimate D2E/DX2                !
 ! R29   R(19,32)                1.0968         estimate D2E/DX2                !
 ! R30   R(20,23)                1.532          estimate D2E/DX2                !
 ! R31   R(20,24)                1.5303         estimate D2E/DX2                !
 ! R32   R(20,25)                1.5299         estimate D2E/DX2                !
 ! R33   R(21,33)                1.1            estimate D2E/DX2                !
 ! R34   R(21,34)                1.514          estimate D2E/DX2                !
 ! R35   R(21,35)                1.1087         estimate D2E/DX2                !
 ! R36   R(22,26)                1.5333         estimate D2E/DX2                !
 ! R37   R(22,27)                1.528          estimate D2E/DX2                !
 ! R38   R(22,28)                1.5306         estimate D2E/DX2                !
 ! R39   R(23,45)                1.104          estimate D2E/DX2                !
 ! R40   R(23,46)                1.1002         estimate D2E/DX2                !
 ! R41   R(23,47)                1.1008         estimate D2E/DX2                !
 ! R42   R(24,48)                1.1027         estimate D2E/DX2                !
 ! R43   R(24,49)                1.1004         estimate D2E/DX2                !
 ! R44   R(24,50)                1.0991         estimate D2E/DX2                !
 ! R45   R(25,51)                1.1031         estimate D2E/DX2                !
 ! R46   R(25,52)                1.0967         estimate D2E/DX2                !
 ! R47   R(25,53)                1.1007         estimate D2E/DX2                !
 ! R48   R(26,60)                1.1024         estimate D2E/DX2                !
 ! R49   R(26,61)                1.0989         estimate D2E/DX2                !
 ! R50   R(26,62)                1.1004         estimate D2E/DX2                !
 ! R51   R(27,54)                1.0985         estimate D2E/DX2                !
 ! R52   R(27,55)                1.1033         estimate D2E/DX2                !
 ! R53   R(27,56)                1.1009         estimate D2E/DX2                !
 ! R54   R(28,57)                1.0969         estimate D2E/DX2                !
 ! R55   R(28,58)                1.0966         estimate D2E/DX2                !
 ! R56   R(28,59)                1.1031         estimate D2E/DX2                !
 ! R57   R(31,42)                1.1004         estimate D2E/DX2                !
 ! R58   R(31,43)                1.101          estimate D2E/DX2                !
 ! R59   R(31,44)                1.0999         estimate D2E/DX2                !
 ! R60   R(34,39)                1.1063         estimate D2E/DX2                !
 ! R61   R(34,40)                1.1008         estimate D2E/DX2                !
 ! R62   R(34,41)                1.1005         estimate D2E/DX2                !
 ! R63   R(36,63)                1.1632         estimate D2E/DX2                !
 ! R64   R(37,38)                0.9642         estimate D2E/DX2                !
 ! A1    A(2,1,3)              120.3753         estimate D2E/DX2                !
 ! A2    A(2,1,18)             117.199          estimate D2E/DX2                !
 ! A3    A(3,1,18)             122.0798         estimate D2E/DX2                !
 ! A4    A(1,2,4)              121.5525         estimate D2E/DX2                !
 ! A5    A(1,2,7)              113.9078         estimate D2E/DX2                !
 ! A6    A(4,2,7)              124.5347         estimate D2E/DX2                !
 ! A7    A(1,3,6)              120.2654         estimate D2E/DX2                !
 ! A8    A(1,3,11)             116.4308         estimate D2E/DX2                !
 ! A9    A(6,3,11)             123.208          estimate D2E/DX2                !
 ! A10   A(2,4,5)              118.7758         estimate D2E/DX2                !
 ! A11   A(2,4,8)              119.8876         estimate D2E/DX2                !
 ! A12   A(5,4,8)              121.3366         estimate D2E/DX2                !
 ! A13   A(4,5,6)              119.1145         estimate D2E/DX2                !
 ! A14   A(4,5,9)              120.4921         estimate D2E/DX2                !
 ! A15   A(6,5,9)              120.3759         estimate D2E/DX2                !
 ! A16   A(3,6,5)              119.7245         estimate D2E/DX2                !
 ! A17   A(3,6,10)             119.3958         estimate D2E/DX2                !
 ! A18   A(5,6,10)             120.8661         estimate D2E/DX2                !
 ! A19   A(2,7,12)             111.4341         estimate D2E/DX2                !
 ! A20   A(2,7,13)             110.5441         estimate D2E/DX2                !
 ! A21   A(2,7,14)             108.323          estimate D2E/DX2                !
 ! A22   A(12,7,13)            112.2111         estimate D2E/DX2                !
 ! A23   A(12,7,14)            106.7513         estimate D2E/DX2                !
 ! A24   A(13,7,14)            107.343          estimate D2E/DX2                !
 ! A25   A(3,11,15)            106.9733         estimate D2E/DX2                !
 ! A26   A(3,11,16)            111.1876         estimate D2E/DX2                !
 ! A27   A(3,11,17)            111.7356         estimate D2E/DX2                !
 ! A28   A(15,11,16)           103.8297         estimate D2E/DX2                !
 ! A29   A(15,11,17)           107.4989         estimate D2E/DX2                !
 ! A30   A(16,11,17)           114.9265         estimate D2E/DX2                !
 ! A31   A(7,12,19)            110.8735         estimate D2E/DX2                !
 ! A32   A(7,12,21)            108.5466         estimate D2E/DX2                !
 ! A33   A(19,12,21)           112.1145         estimate D2E/DX2                !
 ! A34   A(11,16,18)            98.3405         estimate D2E/DX2                !
 ! A35   A(11,16,20)           103.8386         estimate D2E/DX2                !
 ! A36   A(11,16,22)           102.2796         estimate D2E/DX2                !
 ! A37   A(18,16,20)           119.4391         estimate D2E/DX2                !
 ! A38   A(18,16,22)           118.6077         estimate D2E/DX2                !
 ! A39   A(20,16,22)           110.47           estimate D2E/DX2                !
 ! A40   A(1,18,16)             84.1956         estimate D2E/DX2                !
 ! A41   A(1,18,36)            101.6163         estimate D2E/DX2                !
 ! A42   A(1,18,37)             77.8734         estimate D2E/DX2                !
 ! A43   A(16,18,29)            97.291          estimate D2E/DX2                !
 ! A44   A(16,18,36)           101.5499         estimate D2E/DX2                !
 ! A45   A(16,18,37)            78.531          estimate D2E/DX2                !
 ! A46   A(29,18,36)            91.8666         estimate D2E/DX2                !
 ! A47   A(29,18,37)            88.6342         estimate D2E/DX2                !
 ! A48   A(12,19,30)           106.4299         estimate D2E/DX2                !
 ! A49   A(12,19,31)           116.4714         estimate D2E/DX2                !
 ! A50   A(12,19,32)           106.3593         estimate D2E/DX2                !
 ! A51   A(30,19,31)           110.3933         estimate D2E/DX2                !
 ! A52   A(30,19,32)           105.6919         estimate D2E/DX2                !
 ! A53   A(31,19,32)           110.8449         estimate D2E/DX2                !
 ! A54   A(16,20,23)           107.4874         estimate D2E/DX2                !
 ! A55   A(16,20,24)           108.3506         estimate D2E/DX2                !
 ! A56   A(16,20,25)           113.8324         estimate D2E/DX2                !
 ! A57   A(23,20,24)           107.4037         estimate D2E/DX2                !
 ! A58   A(23,20,25)           108.9103         estimate D2E/DX2                !
 ! A59   A(24,20,25)           110.6205         estimate D2E/DX2                !
 ! A60   A(12,21,33)           106.0984         estimate D2E/DX2                !
 ! A61   A(12,21,34)           113.229          estimate D2E/DX2                !
 ! A62   A(12,21,35)           109.3675         estimate D2E/DX2                !
 ! A63   A(33,21,34)           109.67           estimate D2E/DX2                !
 ! A64   A(33,21,35)           106.7053         estimate D2E/DX2                !
 ! A65   A(34,21,35)           111.4333         estimate D2E/DX2                !
 ! A66   A(16,22,26)           106.2384         estimate D2E/DX2                !
 ! A67   A(16,22,27)           114.3819         estimate D2E/DX2                !
 ! A68   A(16,22,28)           109.8266         estimate D2E/DX2                !
 ! A69   A(26,22,27)           108.3722         estimate D2E/DX2                !
 ! A70   A(26,22,28)           108.3742         estimate D2E/DX2                !
 ! A71   A(27,22,28)           109.4426         estimate D2E/DX2                !
 ! A72   A(20,23,45)           107.9267         estimate D2E/DX2                !
 ! A73   A(20,23,46)           112.1769         estimate D2E/DX2                !
 ! A74   A(20,23,47)           110.4711         estimate D2E/DX2                !
 ! A75   A(45,23,46)           107.7975         estimate D2E/DX2                !
 ! A76   A(45,23,47)           109.9987         estimate D2E/DX2                !
 ! A77   A(46,23,47)           108.4268         estimate D2E/DX2                !
 ! A78   A(20,24,48)           108.8035         estimate D2E/DX2                !
 ! A79   A(20,24,49)           110.5842         estimate D2E/DX2                !
 ! A80   A(20,24,50)           112.7642         estimate D2E/DX2                !
 ! A81   A(48,24,49)           107.6854         estimate D2E/DX2                !
 ! A82   A(48,24,50)           107.3277         estimate D2E/DX2                !
 ! A83   A(49,24,50)           109.4944         estimate D2E/DX2                !
 ! A84   A(20,25,51)           108.539          estimate D2E/DX2                !
 ! A85   A(20,25,52)           113.5786         estimate D2E/DX2                !
 ! A86   A(20,25,53)           111.987          estimate D2E/DX2                !
 ! A87   A(51,25,52)           107.3879         estimate D2E/DX2                !
 ! A88   A(51,25,53)           106.7929         estimate D2E/DX2                !
 ! A89   A(52,25,53)           108.2418         estimate D2E/DX2                !
 ! A90   A(22,26,60)           108.9347         estimate D2E/DX2                !
 ! A91   A(22,26,61)           111.8652         estimate D2E/DX2                !
 ! A92   A(22,26,62)           112.2353         estimate D2E/DX2                !
 ! A93   A(60,26,61)           107.8994         estimate D2E/DX2                !
 ! A94   A(60,26,62)           107.3182         estimate D2E/DX2                !
 ! A95   A(61,26,62)           108.3987         estimate D2E/DX2                !
 ! A96   A(22,27,54)           112.3088         estimate D2E/DX2                !
 ! A97   A(22,27,55)           108.9499         estimate D2E/DX2                !
 ! A98   A(22,27,56)           112.5912         estimate D2E/DX2                !
 ! A99   A(54,27,55)           107.1801         estimate D2E/DX2                !
 ! A100  A(54,27,56)           108.3773         estimate D2E/DX2                !
 ! A101  A(55,27,56)           107.1688         estimate D2E/DX2                !
 ! A102  A(22,28,57)           112.5353         estimate D2E/DX2                !
 ! A103  A(22,28,58)           111.7551         estimate D2E/DX2                !
 ! A104  A(22,28,59)           108.9427         estimate D2E/DX2                !
 ! A105  A(57,28,58)           108.0995         estimate D2E/DX2                !
 ! A106  A(57,28,59)           107.6387         estimate D2E/DX2                !
 ! A107  A(58,28,59)           107.6766         estimate D2E/DX2                !
 ! A108  A(19,31,42)           108.6438         estimate D2E/DX2                !
 ! A109  A(19,31,43)           112.9565         estimate D2E/DX2                !
 ! A110  A(19,31,44)           112.5812         estimate D2E/DX2                !
 ! A111  A(42,31,43)           106.9686         estimate D2E/DX2                !
 ! A112  A(42,31,44)           107.2942         estimate D2E/DX2                !
 ! A113  A(43,31,44)           108.1008         estimate D2E/DX2                !
 ! A114  A(21,34,39)           109.1459         estimate D2E/DX2                !
 ! A115  A(21,34,40)           112.2733         estimate D2E/DX2                !
 ! A116  A(21,34,41)           109.0016         estimate D2E/DX2                !
 ! A117  A(39,34,40)           109.5878         estimate D2E/DX2                !
 ! A118  A(39,34,41)           109.517          estimate D2E/DX2                !
 ! A119  A(40,34,41)           107.2706         estimate D2E/DX2                !
 ! A120  A(18,37,38)           108.9155         estimate D2E/DX2                !
 ! A121  L(1,18,29,16,-1)      181.4866         estimate D2E/DX2                !
 ! A122  L(36,18,37,1,-1)      179.4896         estimate D2E/DX2                !
 ! A123  L(18,36,63,13,-1)     180.3988         estimate D2E/DX2                !
 ! A124  L(1,18,29,16,-2)      194.1284         estimate D2E/DX2                !
 ! A125  L(36,18,37,1,-2)      180.1156         estimate D2E/DX2                !
 ! A126  L(18,36,63,13,-2)     176.111          estimate D2E/DX2                !
 ! D1    D(3,1,2,4)             -3.6028         estimate D2E/DX2                !
 ! D2    D(3,1,2,7)            177.1681         estimate D2E/DX2                !
 ! D3    D(18,1,2,4)          -176.9893         estimate D2E/DX2                !
 ! D4    D(18,1,2,7)             3.7816         estimate D2E/DX2                !
 ! D5    D(2,1,3,6)              5.0964         estimate D2E/DX2                !
 ! D6    D(2,1,3,11)          -171.459          estimate D2E/DX2                !
 ! D7    D(18,1,3,6)           178.1526         estimate D2E/DX2                !
 ! D8    D(18,1,3,11)            1.5972         estimate D2E/DX2                !
 ! D9    D(2,1,18,16)         -171.8664         estimate D2E/DX2                !
 ! D10   D(2,1,18,36)          -71.2306         estimate D2E/DX2                !
 ! D11   D(2,1,18,37)          108.6538         estimate D2E/DX2                !
 ! D12   D(3,1,18,16)           14.8681         estimate D2E/DX2                !
 ! D13   D(3,1,18,36)          115.5039         estimate D2E/DX2                !
 ! D14   D(3,1,18,37)          -64.6117         estimate D2E/DX2                !
 ! D15   D(1,2,4,5)             -0.2582         estimate D2E/DX2                !
 ! D16   D(1,2,4,8)            179.845          estimate D2E/DX2                !
 ! D17   D(7,2,4,5)            178.8864         estimate D2E/DX2                !
 ! D18   D(7,2,4,8)             -1.0105         estimate D2E/DX2                !
 ! D19   D(1,2,7,12)           -37.5762         estimate D2E/DX2                !
 ! D20   D(1,2,7,13)          -163.084          estimate D2E/DX2                !
 ! D21   D(1,2,7,14)            79.5647         estimate D2E/DX2                !
 ! D22   D(4,2,7,12)           143.2212         estimate D2E/DX2                !
 ! D23   D(4,2,7,13)            17.7134         estimate D2E/DX2                !
 ! D24   D(4,2,7,14)           -99.6379         estimate D2E/DX2                !
 ! D25   D(1,3,6,5)             -2.7603         estimate D2E/DX2                !
 ! D26   D(1,3,6,10)           178.5663         estimate D2E/DX2                !
 ! D27   D(11,3,6,5)           173.5527         estimate D2E/DX2                !
 ! D28   D(11,3,6,10)           -5.1206         estimate D2E/DX2                !
 ! D29   D(1,3,11,15)           90.9456         estimate D2E/DX2                !
 ! D30   D(1,3,11,16)          -21.7822         estimate D2E/DX2                !
 ! D31   D(1,3,11,17)         -151.6591         estimate D2E/DX2                !
 ! D32   D(6,3,11,15)          -85.4984         estimate D2E/DX2                !
 ! D33   D(6,3,11,16)          161.7738         estimate D2E/DX2                !
 ! D34   D(6,3,11,17)           31.8969         estimate D2E/DX2                !
 ! D35   D(2,4,5,6)              2.5275         estimate D2E/DX2                !
 ! D36   D(2,4,5,9)           -178.9869         estimate D2E/DX2                !
 ! D37   D(8,4,5,6)           -177.5772         estimate D2E/DX2                !
 ! D38   D(8,4,5,9)              0.9084         estimate D2E/DX2                !
 ! D39   D(4,5,6,3)             -1.0572         estimate D2E/DX2                !
 ! D40   D(4,5,6,10)           177.5963         estimate D2E/DX2                !
 ! D41   D(9,5,6,3)           -179.5446         estimate D2E/DX2                !
 ! D42   D(9,5,6,10)            -0.8912         estimate D2E/DX2                !
 ! D43   D(2,7,12,19)          -69.2059         estimate D2E/DX2                !
 ! D44   D(2,7,12,21)          167.2272         estimate D2E/DX2                !
 ! D45   D(13,7,12,19)          55.3714         estimate D2E/DX2                !
 ! D46   D(13,7,12,21)         -68.1955         estimate D2E/DX2                !
 ! D47   D(14,7,12,19)         172.7038         estimate D2E/DX2                !
 ! D48   D(14,7,12,21)          49.1369         estimate D2E/DX2                !
 ! D49   D(3,11,16,18)          28.1994         estimate D2E/DX2                !
 ! D50   D(3,11,16,20)         151.4099         estimate D2E/DX2                !
 ! D51   D(3,11,16,22)         -93.615          estimate D2E/DX2                !
 ! D52   D(15,11,16,18)        -86.5001         estimate D2E/DX2                !
 ! D53   D(15,11,16,20)         36.7104         estimate D2E/DX2                !
 ! D54   D(15,11,16,22)        151.6854         estimate D2E/DX2                !
 ! D55   D(17,11,16,18)        156.3782         estimate D2E/DX2                !
 ! D56   D(17,11,16,20)        -80.4113         estimate D2E/DX2                !
 ! D57   D(17,11,16,22)         34.5637         estimate D2E/DX2                !
 ! D58   D(7,12,19,30)          57.1332         estimate D2E/DX2                !
 ! D59   D(7,12,19,31)         -66.4183         estimate D2E/DX2                !
 ! D60   D(7,12,19,32)         169.494          estimate D2E/DX2                !
 ! D61   D(21,12,19,30)        178.627          estimate D2E/DX2                !
 ! D62   D(21,12,19,31)         55.0754         estimate D2E/DX2                !
 ! D63   D(21,12,19,32)        -69.0122         estimate D2E/DX2                !
 ! D64   D(7,12,21,33)         -61.1277         estimate D2E/DX2                !
 ! D65   D(7,12,21,34)         178.5333         estimate D2E/DX2                !
 ! D66   D(7,12,21,35)          53.6171         estimate D2E/DX2                !
 ! D67   D(19,12,21,33)        176.0524         estimate D2E/DX2                !
 ! D68   D(19,12,21,34)         55.7135         estimate D2E/DX2                !
 ! D69   D(19,12,21,35)        -69.2028         estimate D2E/DX2                !
 ! D70   D(11,16,18,1)         -20.7701         estimate D2E/DX2                !
 ! D71   D(11,16,18,29)        145.1016         estimate D2E/DX2                !
 ! D72   D(11,16,18,36)       -121.478          estimate D2E/DX2                !
 ! D73   D(11,16,18,37)         57.9949         estimate D2E/DX2                !
 ! D74   D(20,16,18,1)        -131.8904         estimate D2E/DX2                !
 ! D75   D(20,16,18,29)         33.9813         estimate D2E/DX2                !
 ! D76   D(20,16,18,36)        127.4017         estimate D2E/DX2                !
 ! D77   D(20,16,18,37)        -53.1253         estimate D2E/DX2                !
 ! D78   D(22,16,18,1)          88.1837         estimate D2E/DX2                !
 ! D79   D(22,16,18,29)       -105.9446         estimate D2E/DX2                !
 ! D80   D(22,16,18,36)        -12.5242         estimate D2E/DX2                !
 ! D81   D(22,16,18,37)        166.9488         estimate D2E/DX2                !
 ! D82   D(11,16,20,23)        -80.9761         estimate D2E/DX2                !
 ! D83   D(11,16,20,24)        163.245          estimate D2E/DX2                !
 ! D84   D(11,16,20,25)         39.7301         estimate D2E/DX2                !
 ! D85   D(18,16,20,23)         27.1174         estimate D2E/DX2                !
 ! D86   D(18,16,20,24)        -88.6616         estimate D2E/DX2                !
 ! D87   D(18,16,20,25)        147.8235         estimate D2E/DX2                !
 ! D88   D(22,16,20,23)        170.0124         estimate D2E/DX2                !
 ! D89   D(22,16,20,24)         54.2334         estimate D2E/DX2                !
 ! D90   D(22,16,20,25)        -69.2815         estimate D2E/DX2                !
 ! D91   D(11,16,22,26)         52.2311         estimate D2E/DX2                !
 ! D92   D(11,16,22,27)        -67.2698         estimate D2E/DX2                !
 ! D93   D(11,16,22,28)        169.2328         estimate D2E/DX2                !
 ! D94   D(18,16,22,26)        -54.4957         estimate D2E/DX2                !
 ! D95   D(18,16,22,27)       -173.9966         estimate D2E/DX2                !
 ! D96   D(18,16,22,28)         62.506          estimate D2E/DX2                !
 ! D97   D(20,16,22,26)        162.2626         estimate D2E/DX2                !
 ! D98   D(20,16,22,27)         42.7617         estimate D2E/DX2                !
 ! D99   D(20,16,22,28)        -80.7356         estimate D2E/DX2                !
 ! D100  D(1,18,37,38)        -176.6757         estimate D2E/DX2                !
 ! D101  D(16,18,37,38)         96.8763         estimate D2E/DX2                !
 ! D102  D(29,18,37,38)         -0.8458         estimate D2E/DX2                !
 ! D103  D(12,19,31,42)        178.7349         estimate D2E/DX2                !
 ! D104  D(12,19,31,43)         60.2183         estimate D2E/DX2                !
 ! D105  D(12,19,31,44)        -62.5731         estimate D2E/DX2                !
 ! D106  D(30,19,31,42)         57.2535         estimate D2E/DX2                !
 ! D107  D(30,19,31,43)        -61.263          estimate D2E/DX2                !
 ! D108  D(30,19,31,44)        175.9456         estimate D2E/DX2                !
 ! D109  D(32,19,31,42)        -59.5102         estimate D2E/DX2                !
 ! D110  D(32,19,31,43)       -178.0267         estimate D2E/DX2                !
 ! D111  D(32,19,31,44)         59.1819         estimate D2E/DX2                !
 ! D112  D(16,20,23,45)       -177.4935         estimate D2E/DX2                !
 ! D113  D(16,20,23,46)         63.9006         estimate D2E/DX2                !
 ! D114  D(16,20,23,47)        -57.1988         estimate D2E/DX2                !
 ! D115  D(24,20,23,45)        -61.0908         estimate D2E/DX2                !
 ! D116  D(24,20,23,46)       -179.6967         estimate D2E/DX2                !
 ! D117  D(24,20,23,47)         59.2039         estimate D2E/DX2                !
 ! D118  D(25,20,23,45)         58.7447         estimate D2E/DX2                !
 ! D119  D(25,20,23,46)        -59.8613         estimate D2E/DX2                !
 ! D120  D(25,20,23,47)        179.0394         estimate D2E/DX2                !
 ! D121  D(16,20,24,48)        169.6734         estimate D2E/DX2                !
 ! D122  D(16,20,24,49)         51.5949         estimate D2E/DX2                !
 ! D123  D(16,20,24,50)        -71.3739         estimate D2E/DX2                !
 ! D124  D(23,20,24,48)         53.84           estimate D2E/DX2                !
 ! D125  D(23,20,24,49)        -64.2385         estimate D2E/DX2                !
 ! D126  D(23,20,24,50)        172.7928         estimate D2E/DX2                !
 ! D127  D(25,20,24,48)        -64.8997         estimate D2E/DX2                !
 ! D128  D(25,20,24,49)        177.0219         estimate D2E/DX2                !
 ! D129  D(25,20,24,50)         54.0531         estimate D2E/DX2                !
 ! D130  D(16,20,25,51)       -177.9193         estimate D2E/DX2                !
 ! D131  D(16,20,25,52)         62.7222         estimate D2E/DX2                !
 ! D132  D(16,20,25,53)        -60.2718         estimate D2E/DX2                !
 ! D133  D(23,20,25,51)        -58.0136         estimate D2E/DX2                !
 ! D134  D(23,20,25,52)       -177.372          estimate D2E/DX2                !
 ! D135  D(23,20,25,53)         59.6339         estimate D2E/DX2                !
 ! D136  D(24,20,25,51)         59.8077         estimate D2E/DX2                !
 ! D137  D(24,20,25,52)        -59.5508         estimate D2E/DX2                !
 ! D138  D(24,20,25,53)        177.4552         estimate D2E/DX2                !
 ! D139  D(12,21,34,39)         48.9137         estimate D2E/DX2                !
 ! D140  D(12,21,34,40)        -72.8012         estimate D2E/DX2                !
 ! D141  D(12,21,34,41)        168.4901         estimate D2E/DX2                !
 ! D142  D(33,21,34,39)        -69.3722         estimate D2E/DX2                !
 ! D143  D(33,21,34,40)        168.9129         estimate D2E/DX2                !
 ! D144  D(33,21,34,41)         50.2043         estimate D2E/DX2                !
 ! D145  D(35,21,34,39)        172.7058         estimate D2E/DX2                !
 ! D146  D(35,21,34,40)         50.9909         estimate D2E/DX2                !
 ! D147  D(35,21,34,41)        -67.7178         estimate D2E/DX2                !
 ! D148  D(16,22,26,60)        171.6271         estimate D2E/DX2                !
 ! D149  D(16,22,26,61)         52.4323         estimate D2E/DX2                !
 ! D150  D(16,22,26,62)        -69.6723         estimate D2E/DX2                !
 ! D151  D(27,22,26,60)        -65.0201         estimate D2E/DX2                !
 ! D152  D(27,22,26,61)        175.7851         estimate D2E/DX2                !
 ! D153  D(27,22,26,62)         53.6805         estimate D2E/DX2                !
 ! D154  D(28,22,26,60)         53.6585         estimate D2E/DX2                !
 ! D155  D(28,22,26,61)        -65.5362         estimate D2E/DX2                !
 ! D156  D(28,22,26,62)        172.3591         estimate D2E/DX2                !
 ! D157  D(16,22,27,54)        -69.4985         estimate D2E/DX2                !
 ! D158  D(16,22,27,55)        171.9174         estimate D2E/DX2                !
 ! D159  D(16,22,27,56)         53.1731         estimate D2E/DX2                !
 ! D160  D(26,22,27,54)        172.205          estimate D2E/DX2                !
 ! D161  D(26,22,27,55)         53.6209         estimate D2E/DX2                !
 ! D162  D(26,22,27,56)        -65.1234         estimate D2E/DX2                !
 ! D163  D(28,22,27,54)         54.205          estimate D2E/DX2                !
 ! D164  D(28,22,27,55)        -64.3791         estimate D2E/DX2                !
 ! D165  D(28,22,27,56)        176.8766         estimate D2E/DX2                !
 ! D166  D(16,22,28,57)         67.0617         estimate D2E/DX2                !
 ! D167  D(16,22,28,58)        -54.7904         estimate D2E/DX2                !
 ! D168  D(16,22,28,59)       -173.6465         estimate D2E/DX2                !
 ! D169  D(26,22,28,57)       -177.2814         estimate D2E/DX2                !
 ! D170  D(26,22,28,58)         60.8665         estimate D2E/DX2                !
 ! D171  D(26,22,28,59)        -57.9896         estimate D2E/DX2                !
 ! D172  D(27,22,28,57)        -59.2827         estimate D2E/DX2                !
 ! D173  D(27,22,28,58)        178.8652         estimate D2E/DX2                !
 ! D174  D(27,22,28,59)         60.0091         estimate D2E/DX2                !
 --------------------------------------------------------------------------------
 Trust Radius=3.00D-01 FncErr=1.00D-07 GrdErr=1.00D-06 EigMax=2.50D+02 EigMin=1.00D-04
 Number of steps in this run=    374 maximum allowed number of steps=    378.
 GradGradGradGradGradGradGradGradGradGradGradGradGradGradGradGradGradGrad

 Stoichiometry    C20H37N2O2PRu
 Framework group  C1[X(C20H37N2O2PRu)]
 Deg. of freedom   183
 Full point group                 C1      NOp   1
 Largest Abelian subgroup         C1      NOp   1
 Largest concise Abelian subgroup C1      NOp   1
                         Standard orientation:                         
 ---------------------------------------------------------------------
 Center     Atomic      Atomic             Coordinates (Angstroms)
 Number     Number       Type             X           Y           Z
 ---------------------------------------------------------------------
      1          7           0       -0.761320    1.340601   -0.048890
      2          6           0       -2.004318    1.782294    0.231872
      3          6           0        0.148288    2.169112   -0.611101
      4          6           0       -2.368792    3.106393    0.025931
      5          6           0       -1.419417    3.992680   -0.477875
      6          6           0       -0.154912    3.514576   -0.808477
      7          6           0       -2.911756    0.728427    0.788766
      8          1           0       -3.382491    3.433780    0.260071
      9          1           0       -1.670709    5.042864   -0.634959
     10          1           0        0.597485    4.175011   -1.241378
     11          6           0        1.430690    1.541303   -1.066596
     12          7           0       -2.678716   -0.580218    0.144205
     13          1           0       -3.966568    1.047514    0.716390
     14          1           0       -2.679473    0.601304    1.859337
     15          1           0        1.287418    1.243533   -2.119895
     16         15           0        1.743081   -0.081987   -0.180273
     17          1           0        2.267204    2.254970   -1.035478
     18         44           0       -0.396010   -0.654333    0.215969
     19          6           0       -3.130637   -0.561392   -1.269558
     20          6           0        2.765191   -1.091263   -1.426422
     21          6           0       -3.368298   -1.625040    0.936251
     22          6           0        2.831086    0.461429    1.290497
     23          6           0        1.788055   -1.700960   -2.436583
     24          6           0        3.431282   -2.248198   -0.678286
     25          6           0        3.808859   -0.266247   -2.181954
     26          6           0        2.079168    1.605965    1.980217
     27          6           0        4.218676    0.965367    0.896324
     28          6           0        2.971974   -0.692461    2.286259
     29          1           0       -0.212500   -2.284952    0.040303
     30          1           0       -2.583526    0.255925   -1.759928
     31          6           0       -4.627180   -0.411734   -1.501384
     32          1           0       -2.755462   -1.485325   -1.726124
     33          1           0       -2.912110   -1.600026    1.936923
     34          6           0       -3.226983   -3.012157    0.346292
     35          1           0       -4.433606   -1.345958    1.064586
     36          6           0       -0.406911   -0.796749    2.106789
     37          8           0       -0.391467   -0.479983   -1.865371
     38          1           0       -0.276004   -1.355661   -2.252146
     39          1           0       -2.162179   -3.200232    0.112435
     40          1           0       -3.833192   -3.142454   -0.563288
     41          1           0       -3.578101   -3.751777    1.081666
     42          1           0       -4.814835   -0.390523   -2.585438
     43          1           0       -5.034625    0.523088   -1.086412
     44          1           0       -5.204902   -1.250448   -1.085880
     45          1           0        2.369242   -2.325736   -3.137001
     46          1           0        1.266050   -0.932106   -3.025519
     47          1           0        1.034333   -2.315357   -1.920559
     48          1           0        3.870422   -2.941625   -1.414601
     49          1           0        2.687662   -2.809381   -0.092690
     50          1           0        4.243637   -1.915401   -0.016997
     51          1           0        4.321741   -0.924937   -2.902948
     52          1           0        4.577299    0.169954   -1.532435
     53          1           0        3.348764    0.546118   -2.764903
     54          1           0        4.863465    0.159703    0.519719
     55          1           0        4.712671    1.388485    1.787447
     56          1           0        4.179504    1.761961    0.137482
     57          1           0        3.544417   -1.533701    1.876632
     58          1           0        1.995241   -1.070882    2.610691
     59          1           0        3.504882   -0.329894    3.181432
     60          1           0        2.592946    1.854330    2.923433
     61          1           0        1.043923    1.328116    2.222528
     62          1           0        2.059184    2.519833    1.367623
     63          8           0       -0.437672   -0.953820    3.258915
 ---------------------------------------------------------------------
 Rotational constants (GHZ):           0.2581551           0.1559594           0.1402961
 General basis read from cards:  (5D, 7F)
 ======================================================================================================
                                       Pseudopotential Parameters
 ======================================================================================================
  Center     Atomic      Valence      Angular      Power
  Number     Number     Electrons     Momentum     of R      Exponent        Coefficient   SO-Coeffient
 ======================================================================================================
    1          7
                                   No pseudopotential on this center.
    2          6
                                   No pseudopotential on this center.
    3          6
                                   No pseudopotential on this center.
    4          6
                                   No pseudopotential on this center.
    5          6
                                   No pseudopotential on this center.
    6          6
                                   No pseudopotential on this center.
    7          6
                                   No pseudopotential on this center.
    8          1
                                   No pseudopotential on this center.
    9          1
                                   No pseudopotential on this center.
   10          1
                                   No pseudopotential on this center.
   11          6
                                   No pseudopotential on this center.
   12          7
                                   No pseudopotential on this center.
   13          1
                                   No pseudopotential on this center.
   14          1
                                   No pseudopotential on this center.
   15          1
                                   No pseudopotential on this center.
   16         15
                                   No pseudopotential on this center.
   17          1
                                   No pseudopotential on this center.
   18         44           16
                                      G and up 
                                                     2        1.0000000        0.00000000    0.00000000
                                      S - G
                                                     2       11.1052690      209.82297100    0.00000000
                                                     2        5.4147450       30.65472600    0.00000000
                                      P - G
                                                     2        9.7712710      146.33618200    0.00000000
                                                     2        5.0739910       24.12787700    0.00000000
                                      D - G
                                                     2        7.6714230       67.51589700    0.00000000
                                                     2        4.1365650        9.87010400    0.00000000
                                      F - G
                                                     2       11.3600000      -28.34061600    0.00000000
                                                     2        5.6800000       -4.94462900    0.00000000
   19          6
                                   No pseudopotential on this center.
   20          6
                                   No pseudopotential on this center.
   21          6
                                   No pseudopotential on this center.
   22          6
                                   No pseudopotential on this center.
   23          6
                                   No pseudopotential on this center.
   24          6
                                   No pseudopotential on this center.
   25          6
                                   No pseudopotential on this center.
   26          6
                                   No pseudopotential on this center.
   27          6
                                   No pseudopotential on this center.
   28          6
                                   No pseudopotential on this center.
   29          1
                                   No pseudopotential on this center.
   30          1
                                   No pseudopotential on this center.
   31          6
                                   No pseudopotential on this center.
   32          1
                                   No pseudopotential on this center.
   33          1
                                   No pseudopotential on this center.
   34          6
                                   No pseudopotential on this center.
   35          1
                                   No pseudopotential on this center.
   36          6
                                   No pseudopotential on this center.
   37          8
                                   No pseudopotential on this center.
   38          1
                                   No pseudopotential on this center.
   39          1
                                   No pseudopotential on this center.
   40          1
                                   No pseudopotential on this center.
   41          1
                                   No pseudopotential on this center.
   42          1
                                   No pseudopotential on this center.
   43          1
                                   No pseudopotential on this center.
   44          1
                                   No pseudopotential on this center.
   45          1
                                   No pseudopotential on this center.
   46          1
                                   No pseudopotential on this center.
   47          1
                                   No pseudopotential on this center.
   48          1
                                   No pseudopotential on this center.
   49          1
                                   No pseudopotential on this center.
   50          1
                                   No pseudopotential on this center.
   51          1
                                   No pseudopotential on this center.
   52          1
                                   No pseudopotential on this center.
   53          1
                                   No pseudopotential on this center.
   54          1
                                   No pseudopotential on this center.
   55          1
                                   No pseudopotential on this center.
   56          1
                                   No pseudopotential on this center.
   57          1
                                   No pseudopotential on this center.
   58          1
                                   No pseudopotential on this center.
   59          1
                                   No pseudopotential on this center.
   60          1
                                   No pseudopotential on this center.
   61          1
                                   No pseudopotential on this center.
   62          1
                                   No pseudopotential on this center.
   63          8
                                   No pseudopotential on this center.
 ======================================================================================================
 There are   603 symmetry adapted cartesian basis functions of A   symmetry.
 There are   575 symmetry adapted basis functions of A   symmetry.
   575 basis functions,  1187 primitive gaussians,   603 cartesian basis functions
   109 alpha electrons      109 beta electrons
       nuclear repulsion energy      3264.9872257289 Hartrees.
 NAtoms=   63 NActive=   63 NUniq=   63 SFac= 1.00D+00 NAtFMM=   60 NAOKFM=T Big=T
 Integral buffers will be    131072 words long.
 Raffenetti 2 integral format.
 Two-electron integral symmetry is turned on.
 Nuclear repulsion after empirical dispersion term =     3264.8929983702 Hartrees.
 One-electron integrals computed using PRISM.
   1 Symmetry operations used in ECPInt.
 ECPInt:  NShTT=   38503 NPrTT=  265225 LenC2=   35849 LenP2D=  136436.
 LDataN:  DoStor=T MaxTD1= 6 Len=  172
 NBasis=   575 RedAO= T EigKep=  4.37D-04  NBF=   575
 NBsUse=   575 1.00D-06 EigRej= -1.00D+00 NBFU=   575
 Defaulting to unpruned grid for atomic number  44.
 ExpMin= 1.60D-02 ExpMax= 9.48D+04 ExpMxC= 3.24D+03 IAcc=3 IRadAn=         5 AccDes= 0.00D+00
 Harris functional with IExCor= 1009 and IRadAn=       5 diagonalized for initial guess.
 HarFok:  IExCor= 1009 AccDes= 0.00D+00 IRadAn=         5 IDoV= 1 UseB2=F ITyADJ=14
 ICtDFT=  3500011 ScaDFX=  1.000000  1.000000  1.000000  1.000000
 Defaulting to unpruned grid for atomic number  44.
 FoFCou: FMM=F IPFlag=           0 FMFlag=      100000 FMFlg1=        2001
         NFxFlg=           0 DoJE=T BraDBF=F KetDBF=T FulRan=T
         wScrn=  0.000000 ICntrl=       500 IOpCl=  0 I1Cent=   200000004 NGrid=           0
         NMat0=    1 NMatS0=      1 NMatT0=    0 NMatD0=    1 NMtDS0=    0 NMtDT0=    0
 Petite list used in FoFCou.
 Requested convergence on RMS density matrix=1.00D-08 within 128 cycles.
 Requested convergence on MAX density matrix=1.00D-06.
 Requested convergence on             energy=1.00D-06.
 No special actions if energy rises.
 Defaulting to unpruned grid for atomic number  44.
 Defaulting to unpruned grid for atomic number  44.
 Defaulting to unpruned grid for atomic number  44.
 Defaulting to unpruned grid for atomic number  44.
 Defaulting to unpruned grid for atomic number  44.
 Defaulting to unpruned grid for atomic number  44.
 Defaulting to unpruned grid for atomic number  44.
 Defaulting to unpruned grid for atomic number  44.
 Defaulting to unpruned grid for atomic number  44.
 Defaulting to unpruned grid for atomic number  44.
 Defaulting to unpruned grid for atomic number  44.
 Defaulting to unpruned grid for atomic number  44.
 Defaulting to unpruned grid for atomic number  44.
 Defaulting to unpruned grid for atomic number  44.
 Defaulting to unpruned grid for atomic number  44.
 Defaulting to unpruned grid for atomic number  44.
 EnCoef did     2 forward-backward iterations
 SCF Done:  E(RPBE1PBE) =  -1479.47831507     A.U. after   16 cycles
            NFock= 16  Conv=0.62D-08     -V/T= 2.0489

 **********************************************************************

            Population analysis using the SCF density.

 **********************************************************************

 Orbital symmetries:
       Occupied  (A) (A) (A) (A) (A) (A) (A) (A) (A) (A) (A) (A)
                 (A) (A) (A) (A) (A) (A) (A) (A) (A) (A) (A) (A)
                 (A) (A) (A) (A) (A) (A) (A) (A) (A) (A) (A) (A)
                 (A) (A) (A) (A) (A) (A) (A) (A) (A) (A) (A) (A)
                 (A) (A) (A) (A) (A) (A) (A) (A) (A) (A) (A) (A)
                 (A) (A) (A) (A) (A) (A) (A) (A) (A) (A) (A) (A)
                 (A) (A) (A) (A) (A) (A) (A) (A) (A) (A) (A) (A)
                 (A) (A) (A) (A) (A) (A) (A) (A) (A) (A) (A) (A)
                 (A) (A) (A) (A) (A) (A) (A) (A) (A) (A) (A) (A)
                 (A)
       Virtual   (A) (A) (A) (A) (A) (A) (A) (A) (A) (A) (A) (A)
                 (A) (A) (A) (A) (A) (A) (A) (A) (A) (A) (A) (A)
                 (A) (A) (A) (A) (A) (A) (A) (A) (A) (A) (A) (A)
                 (A) (A) (A) (A) (A) (A) (A) (A) (A) (A) (A) (A)
                 (A) (A) (A) (A) (A) (A) (A) (A) (A) (A) (A) (A)
                 (A) (A) (A) (A) (A) (A) (A) (A) (A) (A) (A) (A)
                 (A) (A) (A) (A) (A) (A) (A) (A) (A) (A) (A) (A)
                 (A) (A) (A) (A) (A) (A) (A) (A) (A) (A) (A) (A)
                 (A) (A) (A) (A) (A) (A) (A) (A) (A) (A) (A) (A)
                 (A) (A) (A) (A) (A) (A) (A) (A) (A) (A) (A) (A)
                 (A) (A) (A) (A) (A) (A) (A) (A) (A) (A) (A) (A)
                 (A) (A) (A) (A) (A) (A) (A) (A) (A) (A) (A) (A)
                 (A) (A) (A) (A) (A) (A) (A) (A) (A) (A) (A) (A)
                 (A) (A) (A) (A) (A) (A) (A) (A) (A) (A) (A) (A)
                 (A) (A) (A) (A) (A) (A) (A) (A) (A) (A) (A) (A)
                 (A) (A) (A) (A) (A) (A) (A) (A) (A) (A) (A) (A)
                 (A) (A) (A) (A) (A) (A) (A) (A) (A) (A) (A) (A)
                 (A) (A) (A) (A) (A) (A) (A) (A) (A) (A) (A) (A)
                 (A) (A) (A) (A) (A) (A) (A) (A) (A) (A) (A) (A)
                 (A) (A) (A) (A) (A) (A) (A) (A) (A) (A) (A) (A)
                 (A) (A) (A) (A) (A) (A) (A) (A) (A) (A) (A) (A)
                 (A) (A) (A) (A) (A) (A) (A) (A) (A) (A) (A) (A)
                 (A) (A) (A) (A) (A) (A) (A) (A) (A) (A) (A) (A)
                 (A) (A) (A) (A) (A) (A) (A) (A) (A) (A) (A) (A)
                 (A) (A) (A) (A) (A) (A) (A) (A) (A) (A) (A) (A)
                 (A) (A) (A) (A) (A) (A) (A) (A) (A) (A) (A) (A)
                 (A) (A) (A) (A) (A) (A) (A) (A) (A) (A) (A) (A)
                 (A) (A) (A) (A) (A) (A) (A) (A) (A) (A) (A) (A)
                 (A) (A) (A) (A) (A) (A) (A) (A) (A) (A) (A) (A)
                 (A) (A) (A) (A) (A) (A) (A) (A) (A) (A) (A) (A)
                 (A) (A) (A) (A) (A) (A) (A) (A) (A) (A) (A) (A)
                 (A) (A) (A) (A) (A) (A) (A) (A) (A) (A) (A) (A)
                 (A) (A) (A) (A) (A) (A) (A) (A) (A) (A) (A) (A)
                 (A) (A) (A) (A) (A) (A) (A) (A) (A) (A) (A) (A)
                 (A) (A) (A) (A) (A) (A) (A) (A) (A) (A) (A) (A)
                 (A) (A) (A) (A) (A) (A) (A) (A) (A) (A) (A) (A)
                 (A) (A) (A) (A) (A) (A) (A) (A) (A) (A) (A) (A)
                 (A) (A) (A) (A) (A) (A) (A) (A) (A) (A) (A) (A)
                 (A) (A) (A) (A) (A) (A) (A) (A) (A) (A)
 The electronic state is 1-A.
 Alpha  occ. eigenvalues --  -77.24760 -19.24141 -19.11977 -14.43637 -14.43523
 Alpha  occ. eigenvalues --  -10.29856 -10.29712 -10.29453 -10.27827 -10.26851
 Alpha  occ. eigenvalues --  -10.25995 -10.25918 -10.25739 -10.25320 -10.25178
 Alpha  occ. eigenvalues --  -10.24699 -10.24380 -10.22910 -10.22731 -10.22502
 Alpha  occ. eigenvalues --  -10.22174 -10.21999 -10.21642 -10.21437 -10.20502
 Alpha  occ. eigenvalues --   -6.62632  -4.76288  -4.76205  -4.75930  -3.01151
 Alpha  occ. eigenvalues --   -1.84949  -1.84115  -1.83456  -1.10695  -1.00706
 Alpha  occ. eigenvalues --   -0.96886  -0.90410  -0.85155  -0.84605  -0.83677
 Alpha  occ. eigenvalues --   -0.82723  -0.78022  -0.77517  -0.74522  -0.71093
 Alpha  occ. eigenvalues --   -0.71039  -0.70402  -0.69788  -0.69093  -0.66404
 Alpha  occ. eigenvalues --   -0.66297  -0.63636  -0.62152  -0.57936  -0.56134
 Alpha  occ. eigenvalues --   -0.54435  -0.53997  -0.53536  -0.52102  -0.51400
 Alpha  occ. eigenvalues --   -0.50481  -0.48684  -0.48087  -0.46977  -0.46086
 Alpha  occ. eigenvalues --   -0.45938  -0.45527  -0.44886  -0.44680  -0.44575
 Alpha  occ. eigenvalues --   -0.43836  -0.43216  -0.42972  -0.42303  -0.42085
 Alpha  occ. eigenvalues --   -0.41823  -0.41557  -0.41242  -0.40614  -0.39772
 Alpha  occ. eigenvalues --   -0.39444  -0.39405  -0.38822  -0.38410  -0.38263
 Alpha  occ. eigenvalues --   -0.37494  -0.37419  -0.36846  -0.36598  -0.36435
 Alpha  occ. eigenvalues --   -0.35749  -0.35035  -0.34525  -0.34394  -0.33970
 Alpha  occ. eigenvalues --   -0.33674  -0.32910  -0.32488  -0.31496  -0.31221
 Alpha  occ. eigenvalues --   -0.29661  -0.27521  -0.27030  -0.25970  -0.24264
 Alpha  occ. eigenvalues --   -0.23828  -0.20331  -0.19981  -0.18608
 Alpha virt. eigenvalues --   -0.04155  -0.02376   0.01053   0.02044   0.02451
 Alpha virt. eigenvalues --    0.03180   0.04353   0.05065   0.05179   0.06931
 Alpha virt. eigenvalues --    0.07183   0.07958   0.08246   0.08870   0.09139
 Alpha virt. eigenvalues --    0.09991   0.10157   0.10526   0.10943   0.11280
 Alpha virt. eigenvalues --    0.11812   0.12408   0.12763   0.12932   0.13247
 Alpha virt. eigenvalues --    0.13628   0.13961   0.14246   0.14868   0.14941
 Alpha virt. eigenvalues --    0.15429   0.15604   0.15901   0.16391   0.17020
 Alpha virt. eigenvalues --    0.17208   0.17454   0.17917   0.18290   0.18590
 Alpha virt. eigenvalues --    0.18964   0.19565   0.19706   0.20082   0.20335
 Alpha virt. eigenvalues --    0.20719   0.20987   0.21388   0.21691   0.21832
 Alpha virt. eigenvalues --    0.22149   0.22420   0.22748   0.23187   0.23615
 Alpha virt. eigenvalues --    0.24224   0.24481   0.24927   0.25514   0.26283
 Alpha virt. eigenvalues --    0.27221   0.27468   0.27696   0.28555   0.29203
 Alpha virt. eigenvalues --    0.29842   0.30315   0.31195   0.31943   0.32818
 Alpha virt. eigenvalues --    0.33353   0.34437   0.35168   0.35709   0.36729
 Alpha virt. eigenvalues --    0.37605   0.38500   0.40664   0.41520   0.42193
 Alpha virt. eigenvalues --    0.42329   0.43276   0.43641   0.44642   0.45209
 Alpha virt. eigenvalues --    0.45501   0.46798   0.47568   0.47941   0.48730
 Alpha virt. eigenvalues --    0.49308   0.49567   0.49827   0.50753   0.51097
 Alpha virt. eigenvalues --    0.51515   0.52413   0.52557   0.53039   0.54163
 Alpha virt. eigenvalues --    0.54304   0.55135   0.55370   0.55974   0.56944
 Alpha virt. eigenvalues --    0.57600   0.58094   0.58726   0.59571   0.59780
 Alpha virt. eigenvalues --    0.60226   0.61153   0.61249   0.61531   0.61678
 Alpha virt. eigenvalues --    0.62186   0.62475   0.62668   0.62978   0.63833
 Alpha virt. eigenvalues --    0.64297   0.64384   0.64971   0.65141   0.65267
 Alpha virt. eigenvalues --    0.65605   0.65771   0.65984   0.66750   0.66962
 Alpha virt. eigenvalues --    0.67102   0.67372   0.67819   0.68311   0.68446
 Alpha virt. eigenvalues --    0.68967   0.69146   0.69405   0.69735   0.70021
 Alpha virt. eigenvalues --    0.70791   0.71275   0.71391   0.71933   0.72065
 Alpha virt. eigenvalues --    0.72385   0.73053   0.73478   0.73954   0.74420
 Alpha virt. eigenvalues --    0.74784   0.75204   0.75481   0.76103   0.76209
 Alpha virt. eigenvalues --    0.76525   0.77332   0.77349   0.77737   0.79010
 Alpha virt. eigenvalues --    0.79418   0.79523   0.80475   0.80612   0.81138
 Alpha virt. eigenvalues --    0.82125   0.82557   0.83002   0.83764   0.84267
 Alpha virt. eigenvalues --    0.84571   0.84955   0.86515   0.86740   0.87448
 Alpha virt. eigenvalues --    0.87596   0.88146   0.89360   0.89761   0.90361
 Alpha virt. eigenvalues --    0.90558   0.91488   0.92149   0.92638   0.93309
 Alpha virt. eigenvalues --    0.93915   0.94670   0.95033   0.95606   0.96842
 Alpha virt. eigenvalues --    0.97514   0.97831   0.98539   0.99328   0.99814
 Alpha virt. eigenvalues --    1.00888   1.01335   1.02750   1.03244   1.03820
 Alpha virt. eigenvalues --    1.04976   1.06194   1.06500   1.08024   1.08617
 Alpha virt. eigenvalues --    1.09345   1.10052   1.10892   1.12884   1.13136
 Alpha virt. eigenvalues --    1.14684   1.15190   1.16335   1.17387   1.17749
 Alpha virt. eigenvalues --    1.18325   1.19814   1.20534   1.22437   1.23179
 Alpha virt. eigenvalues --    1.23568   1.24839   1.25997   1.26942   1.28019
 Alpha virt. eigenvalues --    1.28846   1.29293   1.30039   1.31000   1.32208
 Alpha virt. eigenvalues --    1.32775   1.33697   1.33764   1.34511   1.35899
 Alpha virt. eigenvalues --    1.35962   1.37457   1.37962   1.38495   1.38925
 Alpha virt. eigenvalues --    1.40584   1.41169   1.41528   1.42091   1.42526
 Alpha virt. eigenvalues --    1.43046   1.43627   1.44246   1.44447   1.44869
 Alpha virt. eigenvalues --    1.45611   1.45644   1.46226   1.46485   1.47379
 Alpha virt. eigenvalues --    1.48066   1.48802   1.49036   1.49764   1.50243
 Alpha virt. eigenvalues --    1.51070   1.51649   1.52300   1.52834   1.53441
 Alpha virt. eigenvalues --    1.53715   1.54729   1.55161   1.55845   1.56480
 Alpha virt. eigenvalues --    1.57656   1.58444   1.58878   1.59860   1.60664
 Alpha virt. eigenvalues --    1.61035   1.61942   1.62350   1.62865   1.63275
 Alpha virt. eigenvalues --    1.63993   1.64243   1.65042   1.65991   1.66146
 Alpha virt. eigenvalues --    1.66608   1.67186   1.67488   1.68071   1.69005
 Alpha virt. eigenvalues --    1.69225   1.69371   1.69981   1.70132   1.70289
 Alpha virt. eigenvalues --    1.70961   1.71246   1.71782   1.72113   1.72375
 Alpha virt. eigenvalues --    1.72754   1.72842   1.74075   1.74653   1.74961
 Alpha virt. eigenvalues --    1.75140   1.75387   1.75526   1.76147   1.76530
 Alpha virt. eigenvalues --    1.76900   1.77582   1.77949   1.78052   1.78331
 Alpha virt. eigenvalues --    1.79079   1.79761   1.80327   1.80872   1.81974
 Alpha virt. eigenvalues --    1.82072   1.82817   1.83680   1.83835   1.84705
 Alpha virt. eigenvalues --    1.85038   1.85219   1.85571   1.86866   1.87343
 Alpha virt. eigenvalues --    1.88089   1.88432   1.88990   1.89362   1.90165
 Alpha virt. eigenvalues --    1.90694   1.91024   1.91605   1.92184   1.92769
 Alpha virt. eigenvalues --    1.93708   1.94755   1.96306   1.96405   1.96885
 Alpha virt. eigenvalues --    1.97296   1.98285   1.98931   2.00136   2.00412
 Alpha virt. eigenvalues --    2.01073   2.01199   2.02022   2.02895   2.03433
 Alpha virt. eigenvalues --    2.04300   2.04701   2.05649   2.05942   2.06149
 Alpha virt. eigenvalues --    2.06792   2.07165   2.08042   2.08738   2.08946
 Alpha virt. eigenvalues --    2.09880   2.10581   2.11167   2.11816   2.13348
 Alpha virt. eigenvalues --    2.13491   2.13807   2.15369   2.16168   2.18262
 Alpha virt. eigenvalues --    2.19430   2.20170   2.21606   2.22424   2.23113
 Alpha virt. eigenvalues --    2.24213   2.24864   2.25559   2.25756   2.25973
 Alpha virt. eigenvalues --    2.26889   2.27414   2.27702   2.29520   2.30134
 Alpha virt. eigenvalues --    2.30715   2.30835   2.33068   2.33859   2.35340
 Alpha virt. eigenvalues --    2.39806   2.40706   2.40831   2.41169   2.41822
 Alpha virt. eigenvalues --    2.42226   2.42659   2.43353   2.43727   2.44155
 Alpha virt. eigenvalues --    2.44969   2.45573   2.46455   2.46745   2.47645
 Alpha virt. eigenvalues --    2.48165   2.49320   2.49481   2.50432   2.50623
 Alpha virt. eigenvalues --    2.51067   2.51957   2.52171   2.52874   2.53854
 Alpha virt. eigenvalues --    2.54523   2.55079   2.55684   2.56389   2.56872
 Alpha virt. eigenvalues --    2.57272   2.58309   2.58628   2.59323   2.60105
 Alpha virt. eigenvalues --    2.61179   2.61674   2.63344   2.63689   2.65463
 Alpha virt. eigenvalues --    2.67229   2.67898   2.68686   2.69339   2.70546
 Alpha virt. eigenvalues --    2.71291   2.72447   2.73478   2.74144   2.76341
 Alpha virt. eigenvalues --    2.76723   2.78578   2.79901   2.82013   2.82269
 Alpha virt. eigenvalues --    2.84675   2.88232   2.92426   2.99770   3.03086
 Alpha virt. eigenvalues --    3.10348   3.13792   3.15076   3.16049   3.49245
 Alpha virt. eigenvalues --    3.60297   3.90251  34.84553  35.02045  35.14336
 Alpha virt. eigenvalues --   46.03973
          Condensed to atoms (all electrons):
 Mulliken charges:
               1
     1  N   -0.320583
     2  C    0.048887
     3  C    0.097969
     4  C   -0.051808
     5  C    0.083508
     6  C   -0.046175
     7  C    0.115571
     8  H    0.003077
     9  H    0.017717
    10  H    0.004140
    11  C   -0.093199
    12  N   -0.386292
    13  H    0.035899
    14  H    0.098933
    15  H    0.127347
    16  P    0.240196
    17  H    0.049994
    18  Ru  -0.111071
    19  C   -0.015947
    20  C   -0.462536
    21  C    0.000054
    22  C   -0.464608
    23  C   -0.007322
    24  C   -0.009456
    25  C    0.013454
    26  C   -0.008983
    27  C    0.015785
    28  C   -0.003580
    29  H   -0.016208
    30  H    0.129702
    31  C   -0.067677
    32  H    0.089780
    33  H    0.074745
    34  C   -0.098606
    35  H    0.027964
    36  C   -0.013097
    37  O   -0.429647
    38  H    0.163187
    39  H    0.130928
    40  H    0.045003
    41  H    0.050052
    42  H    0.056608
    43  H    0.041963
    44  H    0.047799
    45  H    0.015306
    46  H    0.065522
    47  H    0.093578
    48  H    0.038250
    49  H    0.094152
    50  H    0.042585
    51  H    0.038493
    52  H    0.030976
    53  H    0.040948
    54  H    0.050761
    55  H    0.037909
    56  H    0.038789
    57  H    0.036306
    58  H    0.099621
    59  H    0.032985
    60  H    0.036868
    61  H    0.105922
    62  H    0.040835
    63  O   -0.143275
 Sum of Mulliken charges =  -0.00000
 Mulliken charges with hydrogens summed into heavy atoms:
               1
     1  N   -0.320583
     2  C    0.048887
     3  C    0.097969
     4  C   -0.048730
     5  C    0.101226
     6  C   -0.042035
     7  C    0.250403
    11  C    0.084141
    12  N   -0.386292
    16  P    0.240196
    18  Ru  -0.127279
    19  C    0.203535
    20  C   -0.462536
    21  C    0.102763
    22  C   -0.464608
    23  C    0.167084
    24  C    0.165531
    25  C    0.123871
    26  C    0.174642
    27  C    0.143244
    28  C    0.165332
    31  C    0.078693
    34  C    0.127377
    36  C   -0.013097
    37  O   -0.266460
    63  O   -0.143275
 Electronic spatial extent (au):  <R**2>=           9380.9412
 Charge=             -0.0000 electrons
 Dipole moment (field-independent basis, Debye):
    X=             -0.8979    Y=              4.3805    Z=             -1.2136  Tot=              4.6333
 Quadrupole moment (field-independent basis, Debye-Ang):
   XX=           -162.4145   YY=           -174.1697   ZZ=           -193.6864
   XY=             -1.5834   XZ=             -2.5450   YZ=              1.7902
 Traceless Quadrupole moment (field-independent basis, Debye-Ang):
   XX=             14.3423   YY=              2.5872   ZZ=            -16.9295
   XY=             -1.5834   XZ=             -2.5450   YZ=              1.7902
 Octapole moment (field-independent basis, Debye-Ang**2):
  XXX=            -60.1993  YYY=             25.8690  ZZZ=            -11.8350  XYY=            -28.3862
  XXY=             -7.2730  XXZ=             11.1142  XZZ=             -1.8654  YZZ=             -9.1204
  YYZ=            -15.3589  XYZ=             -1.5408
 Hexadecapole moment (field-independent basis, Debye-Ang**3):
 XXXX=          -6990.9708 YYYY=          -3175.0029 ZZZZ=          -2481.8389 XXXY=            -15.4695
 XXXZ=            -12.9982 YYYX=            -39.4396 YYYZ=            -77.0764 ZZZX=             14.9407
 ZZZY=             35.9428 XXYY=          -1668.1988 XXZZ=          -1546.7636 YYZZ=           -968.6691
 XXYZ=             11.3964 YYXZ=            -20.7889 ZZXY=             25.7108
 N-N= 3.264892998370D+03 E-N=-9.965633452158D+03  KE= 1.410506485533D+03
   1 Symmetry operations used in ECPInt.
 ECPInt:  NShTT=   38503 NPrTT=  265225 LenC2=   35849 LenP2D=  136436.
 LDataN:  DoStor=T MaxTD1= 7 Len=  274
 Calling FoFJK, ICntrl=      2127 FMM=T ISym2X=0 I1Cent= 0 IOpClX= 0 NMat=1 NMatS=1 NMatT=0.
 Defaulting to unpruned grid for atomic number  44.
 Defaulting to unpruned grid for atomic number  44.
 Defaulting to unpruned grid for atomic number  44.
 Defaulting to unpruned grid for atomic number  44.
 Defaulting to unpruned grid for atomic number  44.
 Defaulting to unpruned grid for atomic number  44.
 Defaulting to unpruned grid for atomic number  44.
 Defaulting to unpruned grid for atomic number  44.
 Defaulting to unpruned grid for atomic number  44.
 Defaulting to unpruned grid for atomic number  44.
 Defaulting to unpruned grid for atomic number  44.
 Defaulting to unpruned grid for atomic number  44.
 Defaulting to unpruned grid for atomic number  44.
 Defaulting to unpruned grid for atomic number  44.
 Defaulting to unpruned grid for atomic number  44.
 Defaulting to unpruned grid for atomic number  44.
 ***** Axes restored to original set *****
 -------------------------------------------------------------------
 Center     Atomic                   Forces (Hartrees/Bohr)
 Number     Number              X              Y              Z
 -------------------------------------------------------------------
      1        7          -0.003429264    0.022101518    0.002693569
      2        6           0.004581431   -0.000382703   -0.002097254
      3        6          -0.002834363   -0.005340938   -0.000944611
      4        6          -0.001450093    0.000061590    0.000172683
      5        6           0.001313217   -0.001369502   -0.000110410
      6        6          -0.000484718    0.001775440   -0.000415171
      7        6          -0.001031841   -0.000365920    0.001509211
      8        1          -0.000049064    0.000204996   -0.000044770
      9        1          -0.000038758    0.000061051   -0.000012178
     10        1          -0.000052248    0.000183862    0.000033979
     11        6           0.001822620    0.000967340   -0.002055092
     12        7          -0.000883962   -0.000028171    0.000431095
     13        1          -0.000083644   -0.000081432   -0.000109424
     14        1          -0.000480665    0.000180319   -0.000139000
     15        1          -0.001498005   -0.000187166    0.002279504
     16       15           0.005220932    0.001698689    0.003761129
     17        1           0.000391201   -0.000245905    0.001679636
     18       44          -0.006231875   -0.017848324    0.012733597
     19        6          -0.001664398    0.003403545    0.000779710
     20        6          -0.001176272   -0.000997191    0.001789296
     21        6           0.002429415    0.002280168    0.000415884
     22        6          -0.000227553   -0.000889496   -0.000667780
     23        6           0.012756819   -0.001466677   -0.009755587
     24        6           0.000558378    0.000328468   -0.001393520
     25        6          -0.000975818    0.000019218   -0.000925331
     26        6          -0.000211235    0.000137258    0.000014919
     27        6          -0.000063608    0.000197854   -0.000008571
     28        6          -0.000171563    0.000180066    0.000520369
     29        1           0.001774842    0.005382873    0.006383554
     30        1           0.001089639   -0.003425831   -0.000418341
     31        6           0.000341093   -0.001152697    0.001877293
     32        1           0.000001042    0.001749147   -0.000785917
     33        1          -0.000050606   -0.000276404   -0.000127388
     34        6           0.000685142    0.000431877    0.000328260
     35        1           0.000348949   -0.001364890   -0.000851158
     36        6           0.003553793   -0.006315133   -0.034613880
     37        8          -0.016371098    0.001615043    0.003854093
     38        1          -0.007866150    0.007280602    0.005071359
     39        1          -0.003774808   -0.000199507    0.001239216
     40        1           0.001110475   -0.000136369   -0.000105062
     41        1           0.001077502   -0.000262980   -0.000382282
     42        1           0.000335538    0.000035602    0.000050250
     43        1          -0.000192463   -0.000007170    0.000018220
     44        1          -0.001114593    0.000010118    0.000008341
     45        1           0.001169922   -0.002947708    0.001676336
     46        1           0.006205116   -0.002772952    0.001113500
     47        1           0.006482855   -0.003299814   -0.000866156
     48        1           0.000121208    0.000017526   -0.000013390
     49        1           0.000455143    0.000044492    0.001186039
     50        1          -0.000413323   -0.000270554    0.000271451
     51        1           0.000107853   -0.000028258   -0.000029679
     52        1          -0.000365042   -0.000310472    0.000211588
     53        1          -0.000183141   -0.000255426    0.000235172
     54        1           0.000124796   -0.000086297    0.000047658
     55        1           0.000002376   -0.000077033    0.000015358
     56        1          -0.000026029   -0.000012628   -0.000003712
     57        1           0.000001969   -0.000037332    0.000099885
     58        1           0.000167272   -0.000332802   -0.000205358
     59        1           0.000259835    0.000081526   -0.000009571
     60        1           0.000152241   -0.000086371   -0.000020919
     61        1           0.000077446    0.000134139   -0.000013457
     62        1          -0.000149379   -0.000072643   -0.000064955
     63        8          -0.001174480    0.002370368    0.004687774
 -------------------------------------------------------------------
 Cartesian Forces:  Max     0.034613880 RMS     0.004244947

 GradGradGradGradGradGradGradGradGradGradGradGradGradGradGradGradGradGrad
 Berny optimization.
 FormGI is forming the generalized inverse of G from B-inverse, IUseBI=4.
 Internal  Forces:  Max     0.029329659 RMS     0.005873300
 Search for a local minimum.
 Step number   1 out of a maximum of  374
 All quantities printed in internal units (Hartrees-Bohrs-Radians)
 Mixed Optimization -- RFO/linear search
 Second derivative matrix not updated -- first step.
 ITU=  0
     Eigenvalues ---    0.00230   0.00230   0.00230   0.00325   0.00343
     Eigenvalues ---    0.00361   0.00365   0.00370   0.00394   0.00396
     Eigenvalues ---    0.00478   0.00576   0.00581   0.00615   0.00670
     Eigenvalues ---    0.00791   0.01094   0.01317   0.01662   0.01792
     Eigenvalues ---    0.02187   0.02191   0.02195   0.02212   0.02283
     Eigenvalues ---    0.02632   0.02654   0.02752   0.03721   0.03975
     Eigenvalues ---    0.04093   0.04139   0.04185   0.04747   0.04824
     Eigenvalues ---    0.04824   0.04834   0.04837   0.04997   0.05017
     Eigenvalues ---    0.05156   0.05228   0.05249   0.05254   0.05287
     Eigenvalues ---    0.05300   0.05328   0.05366   0.05433   0.05465
     Eigenvalues ---    0.05490   0.05655   0.05688   0.05698   0.05717
     Eigenvalues ---    0.05736   0.05779   0.05802   0.05835   0.05838
     Eigenvalues ---    0.05980   0.06134   0.06298   0.06624   0.07788
     Eigenvalues ---    0.08515   0.09214   0.09594   0.09720   0.09827
     Eigenvalues ---    0.10117   0.11653   0.12749   0.12941   0.13211
     Eigenvalues ---    0.13254   0.14037   0.14209   0.14400   0.14532
     Eigenvalues ---    0.14588   0.14762   0.15602   0.15993   0.15997
     Eigenvalues ---    0.16000   0.16000   0.16000   0.16000   0.16000
     Eigenvalues ---    0.16000   0.16000   0.16000   0.16000   0.16000
     Eigenvalues ---    0.16000   0.16000   0.16000   0.16000   0.16000
     Eigenvalues ---    0.16000   0.16000   0.16000   0.16000   0.16000
     Eigenvalues ---    0.16000   0.16000   0.16000   0.16000   0.16000
     Eigenvalues ---    0.16000   0.16403   0.16955   0.17087   0.18326
     Eigenvalues ---    0.19145   0.19505   0.21038   0.21952   0.21971
     Eigenvalues ---    0.21981   0.22104   0.23292   0.23715   0.24180
     Eigenvalues ---    0.24747   0.24998   0.29119   0.29242   0.29365
     Eigenvalues ---    0.29394   0.29429   0.29610   0.30197   0.30955
     Eigenvalues ---    0.31332   0.32581   0.32737   0.32996   0.33201
     Eigenvalues ---    0.33249   0.33253   0.33325   0.33344   0.33345
     Eigenvalues ---    0.33371   0.33390   0.33417   0.33577   0.33585
     Eigenvalues ---    0.33589   0.33592   0.33609   0.33627   0.33640
     Eigenvalues ---    0.33641   0.33641   0.33658   0.33678   0.33680
     Eigenvalues ---    0.33690   0.33784   0.33793   0.33801   0.33850
     Eigenvalues ---    0.34028   0.34044   0.34055   0.34064   0.34076
     Eigenvalues ---    0.34411   0.34675   0.34729   0.34734   0.34884
     Eigenvalues ---    0.42633   0.43592   0.46852   0.47274   0.49626
     Eigenvalues ---    0.54028   0.54573   1.25728
 RFO step:  Lambda=-7.31868650D-02 EMin= 2.30000000D-03
 Linear search not attempted -- first point.
 Maximum step size (   0.300) exceeded in Quadratic search.
    -- Step size scaled by   0.704
 Iteration  1 RMS(Cart)=  0.18651351 RMS(Int)=  0.00666901
 Iteration  2 RMS(Cart)=  0.01703992 RMS(Int)=  0.00043006
 Iteration  3 RMS(Cart)=  0.00018983 RMS(Int)=  0.00042673
 Iteration  4 RMS(Cart)=  0.00000009 RMS(Int)=  0.00042673
 Variable       Old X    -DE/DX   Delta X   Delta X   Delta X     New X
                                 (Linear)    (Quad)   (Total)
    R1        2.54865  -0.00082   0.00000  -0.00090  -0.00097   2.54769
    R2        2.55630  -0.00503   0.00000  -0.00405  -0.00471   2.55159
[...]
 4,0.00003990,0.00009046,0.00007814,0.00001982,0.00000349,0.00001881,-0
 .00000244,-0.00000190,0.00000155,-0.00000766,0.00003147,-0.00005020,-0
 .00026609,-0.00014040,0.00006205,0.00000046,-0.00002966,-0.00002776,0.
 00000734,-0.00003877,-0.00001106,0.00000244,0.00009304,-0.00001849,0.0
 0009524,0.00008955,-0.00002601,0.00095895,0.00086473,-0.00093108,0.000
 10966,-0.00002646,-0.00003127,-0.00009910,0.00040738,0.00065478,0.0000
 1661,-0.00002888,-0.00003884,0.00000217,-0.00012562,0.00009289,0.00001
 090,-0.00002478,-0.00002201,0.01984366,0.00887381,-0.00245346,-0.00004
 061,-0.00000788,0.00001397,0.00003147,-0.00001480,0.00003834,-0.000014
 63,0.00010371,0.00005383,-0.09310090,-0.08239438,0.02055266,0.00241431
 ,-0.00309716,-0.00220505,0.00006195,0.00152062,-0.00016995,0.00005127,
 0.00001841,0.00000535,-0.00002428,0.00001349,0.00001519,-0.00000143,0.
 00001083,0.00000893,-0.00002487,-0.00001318,-0.00001756,-0.00003206,0.
 00000373,0.00000178,-0.00000893,-0.00000521,0.00001451,0.00003068,0.00
 000554,-0.00000287,-0.00140721,-0.00159879,-0.00189455,-0.00005297,-0.
 00027085,0.00035296,0.00004496,-0.00002505,-0.00001718,-0.00001801,-0.
 00002558,-0.00000823,0.00000503,-0.00000006,0.00000449,0.00000750,-0.0
 0000286,-0.00000515,0.00000324,-0.00000289,0.00000244,0.00001284,-0.00
 001211,-0.00000341,0.00000304,-0.00000142,-0.00000092,-0.00001435,0.00
 001574,0.00001890,0.00001717,0.00000075,-0.00001976,0.00000949,-0.0000
 1563,0.00002103,-0.00001275,0.00000259,0.00000098,-0.00001593,-0.00002
 003,-0.00001633,-0.00000778,0.00004936,-0.00000889,-0.00003104,-0.0000
 1887,0.00002008,-0.00001625,-0.00002990,0.00005257,-0.00001166,-0.0000
 1549,-0.00001701,0.00146450,0.00067499,-0.00056064,-0.00003827,-0.0002
 4173,0.00008788,0.00008496,0.00011555,-0.00028940,-0.00024055,0.000081
 16,-0.00008712,-0.00005047,-0.00039292,0.00013526,-0.00005679,-0.00005
 260,-0.00000419,-0.00435575,-0.00305861,0.00170756,0.09828139,0.087481
 24,-0.00024079,0.00024318,-0.00016987,-0.00068673,0.00019636,0.0000871
 2,0.00062445,0.00028069,-0.00045356,-0.00001859,-0.00015816,-0.0000182
 5,0.00012851,-0.00003049,-0.00005981,-0.00013324,0.00011840,-0.0000165
 0,-0.00003426,-0.00003707,0.00004556,0.00002126,-0.00002984,0.00000538
 ,0.00000932,-0.00000835,0.00001396,-0.00000195,-0.00006068,0.00004461,
 -0.00007263,0.00002195,-0.00021746,0.00000481,-0.00001024,-0.00003052,
 0.00005153,0.00000633,0.00000150,-0.00000524,0.00002835,0.00002141,-0.
 00012177,0.00001349,-0.00003444,0.00204503,0.00036387,-0.00079831,-0.0
 0008131,-0.00017067,0.00018632,0.00006144,0.00092548,-0.00046678,-0.00
 002095,0.00000142,-0.00003510,-0.00007194,-0.00014570,0.00002208,-0.00
 003478,-0.00004072,0.00007390,0.01329023,0.00690165,-0.00437314,-0.000
 03402,0.00000343,0.00000148,0.00003697,0.00000840,0.00010109,-0.000002
 70,0.00014035,0.00008815,0.04740165,0.01918915,-0.05308468,0.00144749,
 -0.00314646,-0.00158525,-0.00074562,0.00038139,0.00007021,0.00007999,0
 .00018807,0.00010553,-0.00001308,0.00000308,-0.00000768,0.00000435,-0.
 00000582,0.00000925,-0.00000354,0.00000304,-0.00000447,-0.00001236,0.0
 0000729,0.00000530,-0.00000046,0.00002420,-0.00001135,0.00002460,0.000
 00291,-0.00000668,-0.00059231,-0.00126490,0.00265381,-0.00007130,-0.00
 019461,0.00037412,-0.00000033,-0.00000714,-0.00008007,-0.00000514,-0.0
 0003996,0.00004425,0.00001171,-0.00000371,-0.00000044,0.00001607,0.000
 00990,-0.00000643,0.00000683,0.00000036,0.00000739,-0.00000409,-0.0000
 0068,-0.00000177,0.00000964,0.00000570,-0.00000458,-0.00002021,0.00001
 567,0.00002058,0.00002205,-0.00000335,-0.00002424,0.00000645,-0.000031
 24,-0.00002232,-0.00003230,0.00001445,-0.00002317,0.00001628,-0.000012
 11,-0.00000442,-0.00006513,0.00003568,-0.00002267,-0.00004960,-0.00003
 205,0.00001778,-0.00004290,-0.00002546,0.00004931,-0.00000938,-0.00000
 301,-0.00002080,0.00133122,0.00033724,0.00029674,0.00015812,0.00012829
 ,0.00028888,-0.00034162,-0.00014125,0.00017336,-0.00000915,-0.00005743
 ,-0.00017534,-0.00002561,-0.00001317,0.00037783,-0.00014943,-0.0001476
 0,-0.00002432,-0.02491091,-0.00977944,0.00588074,-0.05358422,-0.019203
 38,0.05601429,-0.00042972,-0.00032222,0.00018174,-0.00013273,-0.000131
 90,0.00008874,0.00007406,-0.00016337,-0.00118162,0.00001678,0.00012407
 ,-0.00002039,-0.00020803,0.00009741,0.00012060,0.00003967,0.00035052,-
 0.00023522,-0.00003639,-0.00007882,-0.00001734,0.00000823,-0.00000270,
 -0.00000870,0.00000838,-0.00000964,-0.00001169,0.00001685,-0.00003697,
 0.00003695,0.00041500,0.00001901,-0.00032473,0.00000130,0.00003524,-0.
 00001639,0.00000170,0.00002678,-0.00000453,0.00004484,0.00000618,0.000
 00723,-0.00018487,-0.00005727,-0.00000266,0.00007731,-0.00018483,-0.00
 010705,-0.00011451,-0.00013002,0.00027951,-0.00001410,-0.00028708,-0.0
 0038736,-0.00002298,0.00000400,0.00001775,-0.00007149,0.00003937,-0.00
 004456,-0.00000872,0.00000681,0.00004400,-0.00258383,0.01296259,-0.010
 73465,0.00001638,-0.00003759,0.00000617,0.00000082,-0.00000522,0.00004
 100,0.00005080,0.00002163,0.00003059,-0.04663321,0.01814446,-0.0102768
 1,0.00103878,0.00069046,-0.00120162,-0.00238277,0.00272700,0.00217521,
 -0.00001495,0.00004739,0.00001913,0.00001248,-0.00000822,-0.00002022,0
 .00000182,-0.00000676,-0.00000641,0.00000941,0.00001279,0.00000224,0.0
 0000981,-0.00000443,-0.00000225,0.00000766,0.00000652,-0.00000949,-0.0
 0000566,-0.00000194,-0.00000202,0.00009419,-0.00007675,0.00100620,0.00
 001317,0.00013859,-0.00011905,0.00000458,0.00002095,0.00000643,0.00000
 528,0.00000400,0.00000713,0.00000044,-0.00000142,-0.00000190,0.0000011
 5,0.00000681,0.00000085,-0.00000129,0.00000147,0.00000168,-0.00001041,
 0.00000484,0.00000220,0.00000307,0.00000471,-0.00000082,-0.00000374,-0
 .00000166,-0.00000564,0.00000937,0.00000008,0.00000663,-0.00001028,-0.
 00000332,-0.00000872,-0.00000195,-0.00000327,0.00002132,-0.00003543,-0
 .00004292,-0.00002159,0.00003847,0.00002611,-0.00004817,-0.00001192,-0
 .00001399,-0.00001274,-0.00003557,-0.00000034,0.00000786,-0.00000128,-
 0.00000790,0.00000173,0.00027081,-0.00026997,-0.00001514,-0.00010908,0
 .00004678,-0.00013925,-0.00021670,-0.00018216,0.00057634,0.00022339,0.
 00126086,-0.00057194,0.00005614,0.00020846,-0.00004218,0.00006171,-0.0
 0019026,0.00041095,-0.00181109,0.01187482,-0.00663688,0.00437666,-0.02
 335971,0.01554569,0.04813021,0.00003872,-0.00033922,0.00046034,-0.0002
 5773,-0.00014279,0.00007953,-0.00016530,0.00086829,-0.00012599,0.00018
 103,0.00006909,-0.00021075,-0.00029609,0.00012349,0.00010128,0.0004021
 5,-0.00008325,0.00035184,-0.00001329,-0.00009097,-0.00000493,0.0000057
 2,-0.00000100,-0.00000043,0.00001463,-0.00001641,0.00000556,-0.0000229
 3,0.00000128,0.00000628,0.00002740,0.00015145,0.00009339,-0.00003167,0
 .00001224,0.00000571,0.00000473,0.00002916,-0.00000263,0.00002337,0.00
 000279,0.00000333,0.00004381,0.00003241,0.00003905,0.00085517,-0.00158
 124,0.00161905,0.00013946,0.00022026,-0.00035300,-0.00031377,0.0000554
 6,-0.00062417,-0.00001610,-0.00000111,0.00002661,-0.00005141,0.0000668
 1,-0.00019908,-0.00002158,0.00000275,0.00004207,-0.00039982,-0.0167057
 8,0.01196212,0.00003566,0.00003292,-0.00003055,0.00000964,0.00008384,0
 .00007836,-0.00002864,-0.00001832,0.00000718,0.01862219,-0.23795429,0.
 12191520,-0.00147232,0.00074610,0.00045621,0.00329158,-0.00250709,-0.0
 0390731,0.00001890,0.00010062,0.00005205,0.00000452,-0.00001176,-0.000
 02273,0.00000304,-0.00000737,-0.00001162,0.00000616,0.00000920,0.00000
 395,0.00001099,-0.00000570,-0.00000483,0.00000963,0.00001017,-0.000007
 67,-0.00000990,-0.00000254,0.00000118,0.00032389,-0.00020696,0.0009305
 3,0.00002696,0.00019792,-0.00015516,0.00002669,0.00003728,0.00000739,0
 .00000448,-0.00000278,0.00000712,-0.00000224,-0.00000128,-0.00000175,0
 .00000472,0.00000814,-0.00000170,-0.00000347,0.00000160,0.00000093,-0.
 00001180,0.00000464,0.00000405,0.00000566,0.00000547,-0.00000087,-0.00
 001457,0.00000226,-0.00000584,-0.00001338,-0.00000626,-0.00003551,0.00
 000962,0.00000613,0.00000509,-0.00003345,0.00002491,-0.00007296,0.0000
 5295,0.00007147,0.00004286,-0.00012684,-0.00003612,0.00002934,-0.00000
 239,0.00002342,-0.00000299,0.00001728,-0.00001553,0.00001441,0.0000046
 9,0.00001626,-0.00005890,-0.00019416,0.00019066,-0.00025753,0.00008539
 ,-0.00003026,-0.00005054,0.00064957,0.00050509,-0.00036253,0.00033927,
 -0.00108518,0.00123381,-0.00002936,0.00034261,-0.00009287,-0.00005941,
 0.00029227,-0.00004644,-0.00094634,0.00628057,-0.00460334,0.00276354,-
 0.00819663,0.00500180,-0.02335044,0.25823724,-0.00024521,0.00000704,-0
 .00037919,0.00024288,-0.00007613,0.00001711,-0.00137663,0.00011160,-0.
 00109312,0.00005724,0.00012336,-0.00002236,-0.00000881,-0.00007048,0.0
 0005771,-0.00021582,0.00004542,-0.00046678,-0.00000241,0.00001784,-0.0
 0001727,0.00001691,0.00000148,0.00000525,0.00002087,-0.00002276,0.0000
 0018,0.00000496,0.00002955,0.00002229,-0.00022940,-0.00041626,-0.00097
 979,0.00003238,-0.00000872,0.00000762,0.00001340,-0.00000540,-0.000000
 63,-0.00000217,0.00002934,-0.00000362,0.00000871,-0.00010739,-0.000076
 17,-0.00015703,-0.00064858,0.00059471,0.00016539,0.00008935,-0.0004338
 0,0.00005081,0.00009552,0.00005159,-0.00000085,-0.00000088,-0.00002212
 ,0.00019034,0.00005788,0.00003410,-0.00001484,-0.00001111,0.00000010,0
 .00094306,-0.01399466,0.00795976,-0.00007417,0.00003177,0.00001985,-0.
 00002048,0.00000948,0.00003786,0.00000228,0.00002383,-0.00000015,-0.01
 069252,0.12419318,-0.12266677,-0.00053634,-0.00035699,0.00071004,0.001
 42732,-0.00188059,-0.00120270,-0.00001100,0.00000916,0.00000166,-0.000
 00822,0.00000499,0.00000514,0.00000207,0.00000136,0.00000608,-0.000002
 59,-0.00000285,-0.00000097,-0.00000583,0.00000071,0.00000298,-0.000001
 58,0.00000192,0.00000122,0.00001080,0.00000023,-0.00000052,-0.00002599
 ,0.00005726,-0.00031756,0.00005059,-0.00000189,0.00008051,0.00000312,-
 0.00000667,-0.00001345,-0.00000409,-0.00000683,-0.00000047,0.00000273,
 -0.00000018,0.00000289,0.00000099,0.00000087,-0.00000211,0.00000281,-0
 .00000044,0.00000290,0.00000109,-0.00000239,-0.00000257,0.00000146,0.0
 0000084,-0.00000186,0.00000323,0.00002204,0.00003311,0.00000275,-0.000
 01207,-0.00000651,0.00000072,-0.00000235,-0.00000375,-0.00001446,0.000
 01334,-0.00000031,0.00000556,0.00000536,0.00000773,-0.00001630,0.00000
 528,0.00002167,-0.00001424,0.00000782,0.00000751,-0.00000323,-0.000001
 14,0.00000264,0.00000637,0.00000130,-0.00000910,-0.00022574,-0.0001544
 6,-0.00001189,-0.00002793,0.00020653,-0.00019016,-0.00009439,0.0002308
 1,0.00008139,0.00040411,-0.00064586,0.00092358,-0.00000442,-0.00004101
 ,-0.00017583,0.00038321,-0.00003266,0.00039641,-0.00064193,0.02266202,
 -0.01330273,-0.00177945,0.00305128,-0.00366057,0.01235374,-0.13263908,
 0.13371895,-0.00013952,0.00034107,-0.00018655,-0.00010064,0.00008399,0
 .00004987,-0.00030714,-0.00012965,0.00023113,0.00008759,-0.00005666,-0
 .00005927,0.00008364,-0.00002194,-0.00001659,0.00007377,0.00011148,-0.
 00000475,0.00015701,-0.00034189,0.00055454,0.00001277,-0.00003398,0.00
 000518,0.00001664,0.00001049,-0.00000385,-0.00000478,0.00001374,-0.000
 02460,0.00050362,0.00014759,0.00012533,0.00061485,-0.00050168,0.001129
 91,0.00003704,0.00001754,0.00000013,-0.00028112,-0.00000866,-0.0001485
 1,0.00002608,-0.00015873,0.00007505,-0.00083023,0.00070683,-0.00499035
 ,-0.00002242,0.00012075,-0.00011091,0.03592807,-0.00106828,0.00436989,
 0.00055329,0.00015326,-0.00028090,0.00037262,0.00023088,0.00000331,0.0
 0008422,-0.00006261,0.00207956,-0.00140252,-0.00047379,0.00060074,-0.0
 0011454,0.00000451,0.00007928,-0.00004775,0.00002790,-0.00007233,0.000
 06383,-0.00008869,-0.00003999,0.00044717,0.00016333,0.00035295,0.00020
 437,-0.00045413,-0.00011180,0.00091784,0.00190147,0.00021611,-0.000589
 69,0.00000495,-0.00070250,-0.00011085,-0.00003173,-0.00012949,0.000026
 10,-0.00007826,0.00015525,-0.00003762,0.00003993,-0.00001898,-0.000747
 34,-0.00033937,-0.00095812,-0.00019182,0.00029056,-0.00022239,-0.00004
 643,0.00009320,-0.00034021,-0.05620520,-0.00617526,0.01983401,-0.00505
 458,0.00015692,-0.00028712,-0.00064048,0.00005166,0.00011893,0.0000171
 4,-0.00010922,0.00004622,0.00001501,-0.00018636,-0.00017770,0.00012005
 ,0.00007967,0.00005499,0.00004783,0.00000454,-0.00002155,-0.00001624,0
 .00001436,0.00001419,0.00004949,0.00002225,0.00002649,0.00003225,0.000
 02074,0.00003886,0.00000943,-0.00002364,0.00005019,-0.00004220,0.00006
 025,0.00002443,0.00001131,-0.00001215,0.00009363,-0.00004886,-0.000095
 64,-0.00005505,0.00014207,0.00002029,0.00001187,0.00002822,0.00002738,
 -0.00001028,0.00004478,0.00001966,-0.00003278,0.00000115,-0.00002186,0
 .00003431,0.00002493,0.00005331,-0.00003346,-0.00007493,0.00000627,-0.
 00003562,-0.00014444,-0.00020567,0.00010527,-0.00062976,-0.00037633,0.
 00009679,-0.00304306,-0.00104734,0.00003884,-0.00037877,-0.00024580,0.
 00004341,0.00003312,0.00009567,0.00002567,-0.00030125,-0.00005723,-0.0
 0010614,-0.00004806,-0.00017479,0.00004616,0.03081496,-0.00061914,0.00
 314388,-0.00259347,0.00000256,-0.00089330,0.00036929,0.00000664,-0.000
 38107,0.00042764,0.00011588,0.00027010,0.00013837,0.00010200,-0.000501
 50,0.00000961,0.00011898,0.00025774,0.00000737,-0.00056336,0.00030731,
 -0.00006081,0.00005828,-0.00006382,0.00000953,-0.00000049,-0.00001632,
 -0.00003935,-0.00001507,-0.00002120,0.00003483,-0.00049239,-0.00006645
 ,-0.00022270,-0.00003103,0.00001690,-0.00046539,0.00015942,-0.00009967
 ,-0.00014728,0.00020376,-0.00021063,0.00002599,0.00016509,0.00024729,-
 0.00012546,0.00468261,0.00092595,-0.00106401,-0.00004083,-0.00024130,0
 .00006816,-0.00321810,0.02881046,0.02107246,0.00009541,0.00025859,-0.0
 0015569,-0.00035742,-0.00047503,-0.00010753,-0.00024824,-0.00074833,0.
 00141204,-0.00067582,-0.00030823,0.00115833,-0.00009516,0.00002528,-0.
 00001252,-0.00010405,-0.00015685,0.00024360,-0.00016151,0.00033536,0.0
 0009312,0.00045972,0.00036702,-0.00001804,-0.00016092,0.00017044,-0.00
 090236,-0.00036821,-0.00004533,-0.00000420,0.00006396,0.00134064,0.003
 15213,-0.00042395,0.00022946,-0.00001952,-0.00003243,-0.00002853,-0.00
 008370,-0.00015782,-0.00013990,0.00009307,0.00071146,-0.00041932,-0.00
 026699,0.00001302,0.00034231,-0.00014682,0.00004345,0.00021899,-0.0004
 5899,-0.00631856,-0.14377994,0.25794150,0.00125215,-0.00794520,0.00528
 123,-0.00031137,0.00009148,-0.00188814,-0.00001098,-0.00024650,0.00045
 164,-0.00012243,-0.00003852,-0.00015011,0.00035065,0.00019180,-0.00002
 039,0.00002474,0.00000887,0.00001206,0.00002738,-0.00001477,-0.0000057
 6,0.00018754,0.00004587,-0.00002464,-0.00018879,0.00005347,0.00006645,
 0.00021489,-0.00000740,-0.00023071,0.00009907,-0.00019446,-0.00005941,
 -0.00006618,0.00010162,-0.00003490,0.00010255,0.00001475,0.00006329,-0
 .00012271,-0.00002255,-0.00003976,-0.00013501,-0.00003751,0.00011710,-
 0.00002574,-0.00004343,-0.00001234,0.00005080,0.00003682,-0.00006930,-
 0.00002670,0.00000304,0.00006149,-0.00028581,-0.00017782,-0.00006472,0
 .00015966,0.00015219,-0.00002912,0.00004261,0.00005579,0.00001053,-0.0
 0129207,-0.00041285,0.00034095,0.00004674,0.00013711,-0.00020177,-0.00
 009217,-0.00012809,-0.00014276,-0.00033386,-0.00043266,0.00020314,0.00
 005240,0.00018360,0.00000009,0.00748489,0.11995434,-0.00011034,-0.0059
 7663,0.00464195,0.00082041,0.00240901,-0.00118266,-0.00006462,0.000440
 17,-0.00088147,-0.00064465,-0.00053585,-0.00003833,-0.00015458,0.00120
 959,-0.00003318,-0.00021769,-0.00031177,0.00003261,0.00032821,-0.00065
 723,-0.00183153,-0.00024018,0.00026028,-0.00007401,-0.00004188,0.00004
 524,0.00001925,0.00004173,0.00013932,-0.00011043,0.00184619,0.00098336
 ,0.00082570,-0.00005046,-0.00089739,0.00227016,-0.00046842,0.00042665,
 0.00049310,-0.00055075,0.00037151,0.00015589,-0.00033395,-0.00083090,0
 .00028479,-0.01516407,-0.00579704,0.00051556,0.00001330,0.00100106,-0.
 00056824,0.01075693,0.03369407,-0.06258741,-0.00017984,-0.00027283,0.0
 0047120,0.00158869,0.00179902,0.00038299,0.00034234,0.00222116,-0.0036
 7378,0.00132248,0.00098873,-0.00339560,0.00007435,-0.00005627,0.000294
 98,0.00003132,0.00025648,-0.00055220,0.00049575,-0.00107604,-0.0003810
 0,0.00199480,-0.00044912,0.00097384,0.00026584,0.00004895,0.00257052,0
 .00031913,0.00188819,0.00087808,-0.00031070,-0.00445279,0.00408726,0.0
 0090729,-0.00050730,0.00015022,0.00006942,0.00005664,0.00009091,0.0004
 3005,0.00030627,-0.00002921,-0.00209276,0.00018945,0.00009124,0.000103
 73,-0.00095770,0.00061803,-0.00031442,-0.00044468,0.00113790,0.0203063
 3,0.25576539,-0.84402349,-0.00124488,-0.00021300,-0.00828447,-0.000186
 20,0.00060276,0.00000842,0.00050099,0.00080921,-0.00072241,0.00009264,
 0.00027816,0.00034412,-0.00069945,-0.00037162,0.00008971,-0.00010878,-
 0.00000962,-0.00003448,-0.00010452,0.00010264,0.00001630,-0.00040634,-
 0.00012863,0.00006328,0.00052910,-0.00006153,-0.00017244,-0.00048062,0
 .00001671,0.00052107,-0.00029448,0.00050453,0.00023623,0.00022209,-0.0
 0023206,0.00011030,-0.00038376,0.00002748,-0.00018307,0.00049283,0.000
 11413,0.00009607,0.00040655,0.00016317,-0.00034862,0.00012753,0.000141
 38,0.00000923,-0.00012548,-0.00005490,0.00016434,-0.00018783,-0.000021
 37,-0.00012743,0.00090523,0.00049798,0.00020662,-0.00039501,-0.0004632
 5,0.00008069,-0.00088283,-0.00046398,0.00015814,0.00303852,-0.00038344
 ,-0.00158639,0.00045686,-0.00023853,0.00055835,0.00043202,0.00060165,0
 .00047906,-0.00051260,0.00119545,-0.00163693,-0.00075989,-0.00069393,0
 .00025027,-0.02155067,-0.28299638,0.90808040\\-0.00000035,0.00001357,-
 0.00001318,0.00001606,-0.00002452,0.00000136,-0.00000244,-0.00000101,0
 .00000104,-0.00000676,0.00000938,0.00000066,0.00000005,-0.00000243,0.0
 0000088,-0.00000069,0.00000152,0.00000029,0.00000420,-0.00000319,-0.00
 000346,0.00000156,0.00000134,-0.00000215,-0.00000024,-0.00000016,-0.00
 000091,0.00000142,-0.00000199,-0.00000254,0.00000675,0.00000179,-0.000
 00190,0.00000479,0.00001234,0.00000880,-0.00000718,0.00000540,0.000004
 06,-0.00000404,0.00000396,-0.00000305,-0.00000278,-0.00000082,-0.00000
 322,0.00000429,0.00000731,-0.00000375,-0.00000143,-0.00000415,-0.00000
 035,-0.00002939,-0.00002598,0.00000804,0.00000893,0.00000212,0.0000011
 9,-0.00000825,-0.00000765,0.00000768,-0.00000149,-0.00000069,0.0000009
 4,-0.00000237,-0.00000040,0.00000617,0.00000013,-0.00000350,-0.0000039
 2,0.00000276,-0.00000186,0.00000046,0.00000244,0.00000148,-0.00000312,
 -0.00000057,0.00000582,-0.00000221,-0.00000130,-0.00000289,0.00000166,
 0.00000124,-0.00000070,-0.00000232,0.00000337,-0.00000289,0.00000322,0
 .00000041,-0.00000142,0.00000061,0.00000015,0.00000018,0.00000218,-0.0
 0000262,0.00000068,-0.00000100,0.00000061,0.00000127,-0.00000091,-0.00
 000396,0.00000052,0.00000377,0.00000053,0.00000006,-0.00000069,0.00001
 651,0.00001440,-0.00000179,0.00000118,0.00001073,-0.00001128,0.0000007
 8,-0.00000272,0.00000708,-0.00000063,-0.00000043,0.00000217,0.00000028
 ,0.00000145,0.00000268,0.00000100,-0.00000144,0.00000081,0.00000005,-0
 .00000020,-0.00000096,-0.00000153,-0.00000099,-0.00000057,-0.00000049,
 0.00000054,0.00000135,-0.00000173,-0.00000031,0.00000037,-0.00000060,-
 0.00000219,-0.00000011,-0.00000059,-0.00000132,0.00000038,-0.00000303,
 0.00000085,-0.00000143,0.00000108,0.00000120,-0.00000025,0.00000106,-0
 .00000144,0.00000212,-0.00000031,-0.00000019,-0.00000038,-0.00000093,-
 0.00000177,-0.00000067,0.00000025,-0.00000215,-0.00000012,-0.00000008,
 0.00000142,-0.00000005,0.00000158,0.00000080,-0.00000161,0.00000082,0.
 00000009,-0.00000090,0.00000139,0.00000138,0.00000113,0.00000454,0.000
 00347,-0.00000068,0.00000002,0.00000036,0.00000066,0.00000195,0.000000
 28,-0.00000188,0.00000393,0.00000091,-0.00000008,0.00000093,-0.0000002
 0,0.00000097,-0.00001128,-0.00000502,-0.00000128\\\@


 TO DRY ONE'S EYES AND LAUGH AT A FALL
 AND BAFFLED, GET UP AND BEGIN AGAIN.
           R. BROWNING
 Job cpu time:       0 days 17 hours 56 minutes 11.0 seconds.
 Elapsed time:       0 days  1 hours  7 minutes 19.1 seconds.
 File lengths (MBytes):  RWF=   2077 Int=      0 D2E=      0 Chk=     30 Scr=      1
 Normal termination of Gaussian 16 at Mon Nov 12 21:54:37 2018.
