 Entering Gaussian System, Link 0=g16
 Initial command:
 /cluster/chemistry/gaussian/g16/l1.exe "/scratch/js1212.579302/scratch/Gau-26531.inp" -scrdir="/scratch/js1212.579302/scratch/"
 Entering Link 1 = /cluster/chemistry/gaussian/g16/l1.exe PID=     26532.
  
 Copyright (c) 1988,1990,1992,1993,1995,1998,2003,2009,2016,
            Gaussian, Inc.  All Rights Reserved.
  
 This is part of the Gaussian(R) 16 program.  It is based on
 the Gaussian(R) 09 system (copyright 2009, Gaussian, Inc.),
 the Gaussian(R) 03 system (copyright 2003, Gaussian, Inc.),
 the Gaussian(R) 98 system (copyright 1998, Gaussian, Inc.),
 the Gaussian(R) 94 system (copyright 1995, Gaussian, Inc.),
 the Gaussian 92(TM) system (copyright 1992, Gaussian, Inc.),
 the Gaussian 90(TM) system (copyright 1990, Gaussian, Inc.),
 the Gaussian 88(TM) system (copyright 1988, Gaussian, Inc.),
 the Gaussian 86(TM) system (copyright 1986, Carnegie Mellon
 University), and the Gaussian 82(TM) system (copyright 1983,
 Carnegie Mellon University). Gaussian is a federally registered
 trademark of Gaussian, Inc.
  
 This software contains proprietary and confidential information,
 including trade secrets, belonging to Gaussian, Inc.
  
 This software is provided under written license and may be
 used, copied, transmitted, or stored only in accord with that
 written license.
  
 The following legend is applicable only to US Government
 contracts under FAR:
  
                    RESTRICTED RIGHTS LEGEND
  
 Use, reproduction and disclosure by the US Government is
 subject to restrictions as set forth in subparagraphs (a)
 and (c) of the Commercial Computer Software - Restricted
 Rights clause in FAR 52.227-19.
  
 Gaussian, Inc.
 340 Quinnipiac St., Bldg. 40, Wallingford CT 06492
  
  
 ---------------------------------------------------------------
 Warning -- This program may not be used in any manner that
 competes with the business of Gaussian, Inc. or will provide
 assistance to any competitor of Gaussian, Inc.  The licensee
 of this program is prohibited from giving any competitor of
 Gaussian, Inc. access to this program.  By using this program,
 the user acknowledges that Gaussian, Inc. is engaged in the
 business of creating and licensing software in the field of
 computational chemistry and represents and warrants to the
 licensee that it is not a competitor of Gaussian, Inc. and that
 it will not use this program in any manner prohibited above.
 ---------------------------------------------------------------
  

 Cite this work as:
 Gaussian 16, Revision A.03,
 M. J. Frisch, G. W. Trucks, H. B. Schlegel, G. E. Scuseria, 
 M. A. Robb, J. R. Cheeseman, G. Scalmani, V. Barone, 
 G. A. Petersson, H. Nakatsuji, X. Li, M. Caricato, A. V. Marenich, 
 J. Bloino, B. G. Janesko, R. Gomperts, B. Mennucci, H. P. Hratchian, 
 J. V. Ortiz, A. F. Izmaylov, J. L. Sonnenberg, D. Williams-Young, 
 F. Ding, F. Lipparini, F. Egidi, J. Goings, B. Peng, A. Petrone, 
 T. Henderson, D. Ranasinghe, V. G. Zakrzewski, J. Gao, N. Rega, 
 G. Zheng, W. Liang, M. Hada, M. Ehara, K. Toyota, R. Fukuda, 
 J. Hasegawa, M. Ishida, T. Nakajima, Y. Honda, O. Kitao, H. Nakai, 
 T. Vreven, K. Throssell, J. A. Montgomery, Jr., J. E. Peralta, 
 F. Ogliaro, M. J. Bearpark, J. J. Heyd, E. N. Brothers, K. N. Kudin, 
 V. N. Staroverov, T. A. Keith, R. Kobayashi, J. Normand, 
 K. Raghavachari, A. P. Rendell, J. C. Burant, S. S. Iyengar, 
 J. Tomasi, M. Cossi, J. M. Millam, M. Klene, C. Adamo, R. Cammi, 
 J. W. Ochterski, R. L. Martin, K. Morokuma, O. Farkas, 
 J. B. Foresman, and D. J. Fox, Gaussian, Inc., Wallingford CT, 2016.
 
 ******************************************
 Gaussian 16:  ES64L-G16RevA.03 25-Dec-2016
                 3-Mar-2020 
 ******************************************
 %rwf=/scratch/js1212.579302/F-R2-R2-Down-GPF-T.rwf
 %nosave
 %nprocshared=20
 Will use up to   20 processors via shared memory.
 %mem=3000MB
 %chk=/scratch/js1212.579302/F-R2-R2-Down-GPOF-Disp.chk
 ----------------------------------------------------------------------
 # freq genecp pbe1pbe EmpiricalDispersion=GD3BJ geom=AllCheck Guess=TC
 heck
 ----------------------------------------------------------------------
 1/10=4,29=7,30=1,38=1/1,3;
 2/12=2,40=1/2;
 3/5=7,11=2,14=-4,16=1,17=8,25=1,30=1,71=2,74=-13,116=-2,124=41,140=1/1,2,3;
 4/5=101/1;
 5/5=2,38=6,98=1/2;
 8/6=4,10=90,11=11/1;
 11/6=1,8=1,9=11,15=111,16=1/1,2,10;
 10/6=1/2;
 6/7=2,8=2,9=2,10=2,28=1/1;
 7/8=1,10=1,25=1/1,2,3,16;
 1/10=4,30=1/3;
 99//99;
 Structure from the checkpoint file:  "/scratch/js1212.579302/F-R2-R2-Down-GPOF-Disp.chk"
 -------------------
 Title Card Required
 -------------------
 Charge =  0 Multiplicity = 3
 Redundant internal coordinates found in file.  (old form).
 H,0,-1.286623106,-8.5268599747,1.4837309067
 C,0,-0.5606537813,-9.2369871861,1.90430456
 H,0,-0.9925761764,-9.6529406024,2.827991931
 H,0,0.3515015619,-8.6761471403,2.1583652327
 H,0,5.0382276404,-8.3183157577,-2.2420323806
 O,0,2.7948543116,-7.7633590025,1.1043913926
 H,0,6.1700526376,-6.9056313847,-0.4892203707
 O,0,2.3149225776,-9.6518413805,-0.8928194776
 H,0,2.7349703961,-7.5184005062,0.1523432763
 C,0,-0.2498434299,-10.2955010926,0.8674195802
 H,0,6.1148542142,-9.104757968,-3.4274262612
 H,0,-1.1546521465,-10.9040462113,0.6555820702
 C,0,5.9909935024,-8.8612050597,-2.3580044187
 H,0,5.0433105192,-6.9895637185,0.8953800143
 H,0,6.818256623,-8.1916456788,-2.0796776215
 H,0,0.0477447426,-9.8066074855,-0.0717684437
 C,0,6.0995023406,-7.0750357988,0.5943611942
 H,0,6.6796995929,-6.2805525596,1.0940913623
 H,0,1.2135828993,-11.5051154734,-0.7501536202
 Ru,0,3.021265178,-9.711958792,1.0543319451
 H,0,3.8799209773,-10.658293945,-1.8876452363
 N,0,0.8739385104,-11.1572600059,1.2436405733
 C,0,1.1784387885,-12.0946900768,0.181690772
 C,0,5.99510239,-10.1618878718,-1.5508146466
 H,0,5.0152066321,-11.1410358279,-3.2022860826
 H,0,8.2858680991,-8.3904313998,-0.4660916719
 C,0,4.8826548514,-11.0640136942,-2.1087889678
 C,0,6.6589614779,-8.4437655047,1.0042773727
 P,0,5.4922544616,-9.7363512185,0.2421199157
 H,0,0.4239304154,-12.898383842,0.0709049093
 C,0,8.1263240308,-8.5721886148,0.6056046236
 H,0,0.745811553,-10.9970038821,3.3123175997
 H,0,-1.4034786859,-12.160152771,2.6439464528
 H,0,8.7171498223,-7.8196720958,1.1562727914
 C,0,0.7513346803,-11.7942299599,2.5557305665
 H,0,7.4835112219,-11.1386169052,-2.7637909871
 C,0,3.3317701289,-9.7721544768,2.8684657467
 C,0,7.3325772917,-10.884972076,-1.6998002122
 H,0,5.504100114,-8.5066556043,2.8642815243
 C,0,6.5484181212,-8.5495597454,2.5272042797
 H,0,8.1909446105,-10.281169629,-1.3799505821
 H,0,7.080076102,-7.6945350883,2.9769965953
 C,0,2.5392855284,-12.6995244275,0.3601000366
 N,0,3.5174654303,-11.8650291672,0.7527939383
 C,0,-0.4537145337,-12.7059076518,2.7504357297
 H,0,4.9434068446,-12.0855151289,-1.7046245349
 H,0,1.6801849517,-12.3605032668,2.7297841172
 H,0,8.5387621699,-9.5619747627,0.8554932497
 H,0,-0.4643364398,-13.5438933802,2.0361517066
 C,0,5.8454623748,-11.3132729864,1.1767116152
 H,0,-0.4310036453,-13.1381083584,3.762366282
 H,0,7.3495945672,-11.8342157796,-1.1421886425
 C,0,4.7842501864,-12.3171208743,0.8441914726
 C,0,2.7917909361,-14.0411287528,0.0838420582
 H,0,7.0141403846,-9.4654436451,2.9212007474
 H,0,1.9689944923,-14.6873172585,-0.2245371385
 H,0,5.7598599313,-11.042073733,2.2403342713
 H,0,6.8464773178,-11.7357094149,1.0087680201
 C,0,5.0971961093,-13.6519446417,0.5884027221
 C,0,4.0875009182,-14.5274434539,0.2079917704
 H,0,6.1313272875,-13.9859144216,0.6796518094
 H,0,4.3107501249,-15.5761648682,0.0028815827
 O,0,3.4663894823,-9.8325877082,4.0247880694
 C,0,1.7606615599,-9.9391538726,-4.9563122753
 H,0,0.7526291144,-6.6406909719,1.0128137436
 O,0,3.1184225695,-7.1164792621,-1.640700319
 H,0,3.1016609549,-5.2065157733,0.8102631461
 O,0,0.3680169568,-7.5676273444,-1.6201383958
 H,0,3.8349112881,-6.539189866,-1.3604113351
 C,0,1.9414080988,-8.8532301186,-3.9085387648
 H,0,-0.5294935157,-6.1226465971,2.1400471797
 C,0,0.2485857118,-5.7660521338,1.4451042423
 H,0,3.9135369964,-4.7125440312,-0.6924445089
 H,0,0.9923553097,-5.218681606,2.0419039982
 C,0,3.4342801691,-4.3374970231,0.222576106
 H,0,4.1990884426,-3.7973994847,0.8049258545
 H,0,-0.413909443,-8.1662360487,-3.519391977
 Ru,0,1.5251543333,-6.0843594742,-2.4594212462
 H,0,-1.0500373314,-6.5814742766,-0.8461049985
 N,0,1.4003301121,-7.5187671289,-4.2498848716
 C,0,-0.0665662234,-7.588827385,-4.3933782329
 C,0,-0.4039998496,-4.8922292862,0.3759892884
 H,0,-2.218164079,-6.0323831174,0.4110370366
 H,0,1.5956425379,-3.2627174995,1.9534913165
 C,0,-1.4890355972,-5.7002421149,-0.3480436253
 C,0,2.2935510413,-3.3756914636,-0.1297463463
 P,0,0.9291937413,-4.4658995039,-0.9125776443
 H,0,-0.3644612615,-8.0826917673,-5.3339855117
 C,0,1.8825072685,-2.6046869613,1.1239958059
 H,0,1.6450740419,-5.930213108,-5.5761064428
 H,0,3.9366934563,-6.6613943245,-4.5566581231
 H,0,2.7519132932,-2.0154041847,1.4606746527
 C,0,1.9971355908,-6.9691506693,-5.4844687875
 H,0,-1.9623002193,-4.0515306919,1.5753490751
 C,0,2.5951910753,-4.8831147657,-3.3327544287
 C,0,-1.0881537104,-3.6795160268,1.0155953498
 H,0,3.0969190276,-2.7834832874,-2.1006121462
 C,0,2.7983987968,-2.3442920269,-1.1417085558
 H,0,-0.4581937197,-3.1360357203,1.7261262318
 H,0,3.690620948,-1.8545345352,-0.7169656925
 C,0,-0.7220180211,-6.2461266166,-4.2828091583
 N,0,-0.1712509195,-5.4102357351,-3.3812848211
 C,0,3.513039855,-7.0150689082,-5.5061166042
 H,0,-2.0428811332,-5.0837692261,-1.0744152337
 H,0,1.5956868022,-7.5153678985,-6.3603606218
 H,0,1.063635084,-1.8978837446,0.9297193288
 H,0,3.8899852997,-8.0319594215,-5.6863540281
 C,0,0.0027353349,-3.3604259811,-2.1151781887
 H,0,3.8881688282,-6.3681910814,-6.3121823352
 H,0,-1.4731491494,-2.9650237164,0.2713821708
 C,0,-0.7188536437,-4.204554065,-3.1210335566
 C,0,-1.8679302362,-5.8824694536,-4.9814830112
 H,0,2.055059503,-1.5537054178,-1.3279162104
 H,0,-2.2943921581,-6.5687554412,-5.7136989913
 H,0,0.7794575152,-2.7850127866,-2.6439643917
 H,0,-0.6758175384,-2.6387859209,-1.6390454137
 C,0,-1.8768505733,-3.8002786322,-3.7808426428
 C,0,-2.4544041098,-4.6468479781,-4.7219139395
 H,0,-2.3140018289,-2.8273452885,-3.5548370587
 H,0,-3.3579595353,-4.3429686737,-5.2533481366
 H,0,0.9702633262,-8.2034797324,-1.1885273186
 O,0,3.2875711148,-4.1593143291,-3.9329704207
 H,0,2.2036977559,-10.8683689193,-4.5673003019
 H,0,2.2593140202,-9.7128121407,-5.911955993
 H,0,0.700788316,-10.1506809399,-5.167083942
 H,0,1.4668784593,-9.1468323205,-2.9645777772
 H,0,3.0022354478,-8.7097938686,-3.671635925
 H,0,2.7407245885,-8.8658876193,-1.2837093662
 Recover connectivity data from disk.

 GradGradGradGradGradGradGradGradGradGradGradGradGradGradGradGradGradGrad
 Berny optimization.
 Initialization pass.
                           ----------------------------
                           !    Initial Parameters    !
                           ! (Angstroms and Degrees)  !
 --------------------------                            --------------------------
 ! Name  Definition              Value          Derivative Info.                !
 --------------------------------------------------------------------------------
 ! R1    R(1,2)                  1.0992         calculate D2E/DX2 analytically  !
 ! R2    R(2,3)                  1.1013         calculate D2E/DX2 analytically  !
 ! R3    R(2,4)                  1.1005         calculate D2E/DX2 analytically  !
 ! R4    R(2,10)                 1.514          calculate D2E/DX2 analytically  !
 ! R5    R(5,13)                 1.1027         calculate D2E/DX2 analytically  !
 ! R6    R(6,9)                  0.9849         calculate D2E/DX2 analytically  !
 ! R7    R(6,20)                 1.9623         calculate D2E/DX2 analytically  !
 ! R8    R(7,17)                 1.099          calculate D2E/DX2 analytically  !
 ! R9    R(8,20)                 2.0722         calculate D2E/DX2 analytically  !
 ! R10   R(8,128)                0.9756         calculate D2E/DX2 analytically  !
 ! R11   R(9,69)                 2.1112         calculate D2E/DX2 analytically  !
 ! R12   R(9,121)                2.3198         calculate D2E/DX2 analytically  !
 ! R13   R(10,12)                1.1108         calculate D2E/DX2 analytically  !
 ! R14   R(10,16)                1.0998         calculate D2E/DX2 analytically  !
 ! R15   R(10,22)                1.4653         calculate D2E/DX2 analytically  !
 ! R16   R(11,13)                1.1038         calculate D2E/DX2 analytically  !
 ! R17   R(13,15)                1.1001         calculate D2E/DX2 analytically  !
 ! R18   R(13,24)                1.5308         calculate D2E/DX2 analytically  !
 ! R19   R(14,17)                1.1016         calculate D2E/DX2 analytically  !
 ! R20   R(17,18)                1.1034         calculate D2E/DX2 analytically  !
 ! R21   R(17,28)                1.5344         calculate D2E/DX2 analytically  !
 ! R22   R(19,23)                1.1033         calculate D2E/DX2 analytically  !
 ! R23   R(20,29)                2.6012         calculate D2E/DX2 analytically  !
 ! R24   R(20,37)                1.8415         calculate D2E/DX2 analytically  !
 ! R25   R(20,44)                2.23           calculate D2E/DX2 analytically  !
 ! R26   R(21,27)                1.1041         calculate D2E/DX2 analytically  !
 ! R27   R(22,23)                1.4489         calculate D2E/DX2 analytically  !
 ! R28   R(22,35)                1.4637         calculate D2E/DX2 analytically  !
 ! R29   R(23,30)                1.1079         calculate D2E/DX2 analytically  !
 ! R30   R(23,43)                1.4999         calculate D2E/DX2 analytically  !
 ! R31   R(24,27)                1.5371         calculate D2E/DX2 analytically  !
 ! R32   R(24,29)                1.9101         calculate D2E/DX2 analytically  !
 ! R33   R(24,38)                1.5277         calculate D2E/DX2 analytically  !
 ! R34   R(25,27)                1.1042         calculate D2E/DX2 analytically  !
 ! R35   R(26,31)                1.0986         calculate D2E/DX2 analytically  !
 ! R36   R(27,46)                1.1002         calculate D2E/DX2 analytically  !
 ! R37   R(28,29)                1.9008         calculate D2E/DX2 analytically  !
 ! R38   R(28,31)                1.526          calculate D2E/DX2 analytically  !
 ! R39   R(28,40)                1.5306         calculate D2E/DX2 analytically  !
 ! R40   R(29,50)                1.8668         calculate D2E/DX2 analytically  !
 ! R41   R(31,34)                1.1039         calculate D2E/DX2 analytically  !
 ! R42   R(31,48)                1.101          calculate D2E/DX2 analytically  !
 ! R43   R(32,35)                1.0991         calculate D2E/DX2 analytically  !
 ! R44   R(33,45)                1.1006         calculate D2E/DX2 analytically  !
 ! R45   R(35,45)                1.5236         calculate D2E/DX2 analytically  !
 ! R46   R(35,47)                1.1017         calculate D2E/DX2 analytically  !
 ! R47   R(36,38)                1.1042         calculate D2E/DX2 analytically  !
 ! R48   R(37,63)                1.1657         calculate D2E/DX2 analytically  !
 ! R49   R(38,41)                1.0971         calculate D2E/DX2 analytically  !
 ! R50   R(38,52)                1.101          calculate D2E/DX2 analytically  !
 ! R51   R(39,40)                1.0982         calculate D2E/DX2 analytically  !
 ! R52   R(40,42)                1.1027         calculate D2E/DX2 analytically  !
 ! R53   R(40,55)                1.1004         calculate D2E/DX2 analytically  !
 ! R54   R(43,44)                1.3444         calculate D2E/DX2 analytically  !
 ! R55   R(43,54)                1.3928         calculate D2E/DX2 analytically  !
 ! R56   R(44,53)                1.3481         calculate D2E/DX2 analytically  !
 ! R57   R(45,49)                1.1012         calculate D2E/DX2 analytically  !
 ! R58   R(45,51)                1.1006         calculate D2E/DX2 analytically  !
 ! R59   R(50,53)                1.4981         calculate D2E/DX2 analytically  !
 ! R60   R(50,57)                1.101          calculate D2E/DX2 analytically  !
 ! R61   R(50,58)                1.0994         calculate D2E/DX2 analytically  !
 ! R62   R(53,59)                1.3947         calculate D2E/DX2 analytically  !
 ! R63   R(54,56)                1.0907         calculate D2E/DX2 analytically  !
 ! R64   R(54,60)                1.3895         calculate D2E/DX2 analytically  !
 ! R65   R(59,60)                1.3895         calculate D2E/DX2 analytically  !
 ! R66   R(59,61)                1.0905         calculate D2E/DX2 analytically  !
 ! R67   R(60,62)                1.0917         calculate D2E/DX2 analytically  !
 ! R68   R(64,70)                1.5198         calculate D2E/DX2 analytically  !
 ! R69   R(64,123)               1.1005         calculate D2E/DX2 analytically  !
 ! R70   R(64,124)               1.1014         calculate D2E/DX2 analytically  !
 ! R71   R(64,125)               1.1011         calculate D2E/DX2 analytically  !
 ! R72   R(65,72)                1.0981         calculate D2E/DX2 analytically  !
 ! R73   R(66,69)                0.9619         calculate D2E/DX2 analytically  !
 ! R74   R(66,78)                2.0674         calculate D2E/DX2 analytically  !
 ! R75   R(67,75)                1.1005         calculate D2E/DX2 analytically  !
 ! R76   R(68,78)                2.06           calculate D2E/DX2 analytically  !
 ! R77   R(68,121)               0.9764         calculate D2E/DX2 analytically  !
 ! R78   R(70,80)                1.4799         calculate D2E/DX2 analytically  !
 ! R79   R(70,126)               1.0966         calculate D2E/DX2 analytically  !
 ! R80   R(70,127)               1.0964         calculate D2E/DX2 analytically  !
 ! R81   R(71,72)                1.1025         calculate D2E/DX2 analytically  !
 ! R82   R(72,74)                1.0995         calculate D2E/DX2 analytically  !
 ! R83   R(72,82)                1.5272         calculate D2E/DX2 analytically  !
 ! R84   R(73,75)                1.0989         calculate D2E/DX2 analytically  !
 ! R85   R(75,76)                1.1026         calculate D2E/DX2 analytically  !
 ! R86   R(75,86)                1.5331         calculate D2E/DX2 analytically  !
 ! R87   R(77,81)                1.1036         calculate D2E/DX2 analytically  !
 ! R88   R(78,87)                2.3167         calculate D2E/DX2 analytically  !
 ! R89   R(78,95)                1.8305         calculate D2E/DX2 analytically  !
 ! R90   R(78,102)               2.045          calculate D2E/DX2 analytically  !
 ! R91   R(79,85)                1.1033         calculate D2E/DX2 analytically  !
 ! R92   R(80,81)                1.4756         calculate D2E/DX2 analytically  !
 ! R93   R(80,93)                1.4773         calculate D2E/DX2 analytically  !
 ! R94   R(81,88)                1.1034         calculate D2E/DX2 analytically  !
 ! R95   R(81,101)               1.4982         calculate D2E/DX2 analytically  !
 ! R96   R(82,85)                1.5344         calculate D2E/DX2 analytically  !
 ! R97   R(82,87)                1.9025         calculate D2E/DX2 analytically  !
 ! R98   R(82,96)                1.5323         calculate D2E/DX2 analytically  !
 ! R99   R(83,85)                1.1037         calculate D2E/DX2 analytically  !
 ! R100  R(84,89)                1.097          calculate D2E/DX2 analytically  !
 ! R101  R(85,104)               1.102          calculate D2E/DX2 analytically  !
 ! R102  R(86,87)                1.9139         calculate D2E/DX2 analytically  !
 ! R103  R(86,89)                1.5282         calculate D2E/DX2 analytically  !
 ! R104  R(86,98)                1.5306         calculate D2E/DX2 analytically  !
 ! R105  R(87,108)               1.8779         calculate D2E/DX2 analytically  !
 ! R106  R(89,92)                1.1029         calculate D2E/DX2 analytically  !
 ! R107  R(89,106)               1.099          calculate D2E/DX2 analytically  !
 ! R108  R(90,93)                1.1008         calculate D2E/DX2 analytically  !
 ! R109  R(91,103)               1.0982         calculate D2E/DX2 analytically  !
 ! R110  R(93,103)               1.5168         calculate D2E/DX2 analytically  !
 ! R111  R(93,105)               1.1076         calculate D2E/DX2 analytically  !
 ! R112  R(94,96)                1.1027         calculate D2E/DX2 analytically  !
 ! R113  R(95,122)               1.1677         calculate D2E/DX2 analytically  !
 ! R114  R(96,99)                1.0941         calculate D2E/DX2 analytically  !
 ! R115  R(96,110)               1.1012         calculate D2E/DX2 analytically  !
 ! R116  R(97,98)                1.0961         calculate D2E/DX2 analytically  !
 ! R117  R(98,100)               1.1029         calculate D2E/DX2 analytically  !
 ! R118  R(98,113)               1.101          calculate D2E/DX2 analytically  !
 ! R119  R(101,102)              1.3471         calculate D2E/DX2 analytically  !
 ! R120  R(101,112)              1.3905         calculate D2E/DX2 analytically  !
 ! R121  R(102,111)              1.3495         calculate D2E/DX2 analytically  !
 ! R122  R(103,107)              1.0994         calculate D2E/DX2 analytically  !
 ! R123  R(103,109)              1.0995         calculate D2E/DX2 analytically  !
 ! R124  R(108,111)              1.4983         calculate D2E/DX2 analytically  !
 ! R125  R(108,115)              1.1018         calculate D2E/DX2 analytically  !
 ! R126  R(108,116)              1.099          calculate D2E/DX2 analytically  !
 ! R127  R(111,117)              1.3927         calculate D2E/DX2 analytically  !
 ! R128  R(112,114)              1.0904         calculate D2E/DX2 analytically  !
 ! R129  R(112,118)              1.3922         calculate D2E/DX2 analytically  !
 ! R130  R(117,118)              1.3914         calculate D2E/DX2 analytically  !
 ! R131  R(117,119)              1.0903         calculate D2E/DX2 analytically  !
 ! R132  R(118,120)              1.0914         calculate D2E/DX2 analytically  !
 ! R133  R(121,128)              1.8927         calculate D2E/DX2 analytically  !
 ! A1    A(1,2,3)              107.8128         calculate D2E/DX2 analytically  !
 ! A2    A(1,2,4)              107.8495         calculate D2E/DX2 analytically  !
 ! A3    A(1,2,10)             108.9795         calculate D2E/DX2 analytically  !
 ! A4    A(3,2,4)              108.9011         calculate D2E/DX2 analytically  !
 ! A5    A(3,2,10)             113.0091         calculate D2E/DX2 analytically  !
 ! A6    A(4,2,10)             110.1362         calculate D2E/DX2 analytically  !
 ! A7    A(9,6,20)             103.2578         calculate D2E/DX2 analytically  !
 ! A8    A(20,8,128)           104.5418         calculate D2E/DX2 analytically  !
 ! A9    A(6,9,69)             140.9262         calculate D2E/DX2 analytically  !
 ! A10   A(6,9,121)            122.11           calculate D2E/DX2 analytically  !
 ! A11   A(69,9,121)            96.8426         calculate D2E/DX2 analytically  !
 ! A12   A(2,10,12)            110.2681         calculate D2E/DX2 analytically  !
 ! A13   A(2,10,16)            109.244          calculate D2E/DX2 analytically  !
 ! A14   A(2,10,22)            113.1279         calculate D2E/DX2 analytically  !
 ! A15   A(12,10,16)           107.5219         calculate D2E/DX2 analytically  !
 ! A16   A(12,10,22)           110.578          calculate D2E/DX2 analytically  !
 ! A17   A(16,10,22)           105.8527         calculate D2E/DX2 analytically  !
 ! A18   A(5,13,11)            107.908          calculate D2E/DX2 analytically  !
 ! A19   A(5,13,15)            108.8745         calculate D2E/DX2 analytically  !
 ! A20   A(5,13,24)            111.4188         calculate D2E/DX2 analytically  !
 ! A21   A(11,13,15)           107.1605         calculate D2E/DX2 analytically  !
 ! A22   A(11,13,24)           108.8506         calculate D2E/DX2 analytically  !
 ! A23   A(15,13,24)           112.4408         calculate D2E/DX2 analytically  !
 ! A24   A(7,17,14)            108.6035         calculate D2E/DX2 analytically  !
 ! A25   A(7,17,18)            107.5652         calculate D2E/DX2 analytically  !
 ! A26   A(7,17,28)            112.1782         calculate D2E/DX2 analytically  !
 ! A27   A(14,17,18)           108.9369         calculate D2E/DX2 analytically  !
 ! A28   A(14,17,28)           110.2305         calculate D2E/DX2 analytically  !
 ! A29   A(18,17,28)           109.2421         calculate D2E/DX2 analytically  !
 ! A30   A(6,20,8)              87.4686         calculate D2E/DX2 analytically  !
 ! A31   A(6,20,29)             97.2894         calculate D2E/DX2 analytically  !
 ! A32   A(6,20,37)             91.5347         calculate D2E/DX2 analytically  !
 ! A33   A(8,20,29)             91.7577         calculate D2E/DX2 analytically  !
 ! A34   A(8,20,44)             88.6705         calculate D2E/DX2 analytically  !
 ! A35   A(29,20,37)            98.4604         calculate D2E/DX2 analytically  !
 ! A36   A(29,20,44)            74.7725         calculate D2E/DX2 analytically  !
 ! A37   A(37,20,44)            93.6769         calculate D2E/DX2 analytically  !
 ! A38   A(10,22,23)           110.7021         calculate D2E/DX2 analytically  !
 ! A39   A(10,22,35)           114.9523         calculate D2E/DX2 analytically  !
 ! A40   A(23,22,35)           113.1462         calculate D2E/DX2 analytically  !
 ! A41   A(19,23,22)           106.2608         calculate D2E/DX2 analytically  !
 ! A42   A(19,23,30)           108.959          calculate D2E/DX2 analytically  !
 ! A43   A(19,23,43)           106.6826         calculate D2E/DX2 analytically  !
 ! A44   A(22,23,30)           113.5476         calculate D2E/DX2 analytically  !
 ! A45   A(22,23,43)           111.3715         calculate D2E/DX2 analytically  !
 ! A46   A(30,23,43)           109.7102         calculate D2E/DX2 analytically  !
 ! A47   A(13,24,27)           107.7773         calculate D2E/DX2 analytically  !
 ! A48   A(13,24,29)           107.7553         calculate D2E/DX2 analytically  !
 ! A49   A(13,24,38)           110.6764         calculate D2E/DX2 analytically  !
 ! A50   A(27,24,29)           106.3173         calculate D2E/DX2 analytically  !
 ! A51   A(27,24,38)           108.6883         calculate D2E/DX2 analytically  !
 ! A52   A(29,24,38)           115.3064         calculate D2E/DX2 analytically  !
 ! A53   A(21,27,24)           111.6489         calculate D2E/DX2 analytically  !
 ! A54   A(21,27,25)           109.4519         calculate D2E/DX2 analytically  !
 ! A55   A(21,27,46)           108.5269         calculate D2E/DX2 analytically  !
 ! A56   A(24,27,25)           108.2731         calculate D2E/DX2 analytically  !
 ! A57   A(24,27,46)           111.8138         calculate D2E/DX2 analytically  !
 ! A58   A(25,27,46)           107.0015         calculate D2E/DX2 analytically  !
 ! A59   A(17,28,29)           106.0029         calculate D2E/DX2 analytically  !
 ! A60   A(17,28,31)           110.8473         calculate D2E/DX2 analytically  !
 ! A61   A(17,28,40)           107.5256         calculate D2E/DX2 analytically  !
 ! A62   A(29,28,31)           115.3565         calculate D2E/DX2 analytically  !
 ! A63   A(29,28,40)           107.9166         calculate D2E/DX2 analytically  !
 ! A64   A(31,28,40)           108.8797         calculate D2E/DX2 analytically  !
 ! A65   A(20,29,24)           123.0426         calculate D2E/DX2 analytically  !
 ! A66   A(20,29,28)           116.8407         calculate D2E/DX2 analytically  !
 ! A67   A(20,29,50)            91.7956         calculate D2E/DX2 analytically  !
 ! A68   A(24,29,28)           111.4868         calculate D2E/DX2 analytically  !
 ! A69   A(24,29,50)           103.4107         calculate D2E/DX2 analytically  !
 ! A70   A(28,29,50)           104.9255         calculate D2E/DX2 analytically  !
 ! A71   A(26,31,28)           112.3689         calculate D2E/DX2 analytically  !
 ! A72   A(26,31,34)           107.2236         calculate D2E/DX2 analytically  !
 ! A73   A(26,31,48)           108.4044         calculate D2E/DX2 analytically  !
 ! A74   A(28,31,34)           109.0847         calculate D2E/DX2 analytically  !
 ! A75   A(28,31,48)           112.1216         calculate D2E/DX2 analytically  !
 ! A76   A(34,31,48)           107.4044         calculate D2E/DX2 analytically  !
 ! A77   A(22,35,32)           107.5682         calculate D2E/DX2 analytically  !
 ! A78   A(22,35,45)           116.1821         calculate D2E/DX2 analytically  !
 ! A79   A(22,35,47)           107.1389         calculate D2E/DX2 analytically  !
 ! A80   A(32,35,45)           110.0044         calculate D2E/DX2 analytically  !
 ! A81   A(32,35,47)           105.5639         calculate D2E/DX2 analytically  !
 ! A82   A(45,35,47)           109.8216         calculate D2E/DX2 analytically  !
 ! A83   A(24,38,36)           108.8066         calculate D2E/DX2 analytically  !
 ! A84   A(24,38,41)           113.3307         calculate D2E/DX2 analytically  !
 ! A85   A(24,38,52)           111.8515         calculate D2E/DX2 analytically  !
 ! A86   A(36,38,41)           107.4818         calculate D2E/DX2 analytically  !
 ! A87   A(36,38,52)           106.7295         calculate D2E/DX2 analytically  !
 ! A88   A(41,38,52)           108.3451         calculate D2E/DX2 analytically  !
 ! A89   A(28,40,39)           111.8004         calculate D2E/DX2 analytically  !
 ! A90   A(28,40,42)           108.5075         calculate D2E/DX2 analytically  !
 ! A91   A(28,40,55)           112.5322         calculate D2E/DX2 analytically  !
 ! A92   A(39,40,42)           107.6367         calculate D2E/DX2 analytically  !
 ! A93   A(39,40,55)           108.9697         calculate D2E/DX2 analytically  !
 ! A94   A(42,40,55)           107.1723         calculate D2E/DX2 analytically  !
 ! A95   A(23,43,44)           116.3973         calculate D2E/DX2 analytically  !
 ! A96   A(23,43,54)           121.9599         calculate D2E/DX2 analytically  !
 ! A97   A(44,43,54)           121.5954         calculate D2E/DX2 analytically  !
 ! A98   A(20,44,43)           118.4835         calculate D2E/DX2 analytically  !
 ! A99   A(20,44,53)           121.5804         calculate D2E/DX2 analytically  !
 ! A100  A(43,44,53)           119.6917         calculate D2E/DX2 analytically  !
 ! A101  A(33,45,35)           111.9299         calculate D2E/DX2 analytically  !
 ! A102  A(33,45,49)           107.8355         calculate D2E/DX2 analytically  !
 ! A103  A(33,45,51)           107.548          calculate D2E/DX2 analytically  !
 ! A104  A(35,45,49)           112.3406         calculate D2E/DX2 analytically  !
 ! A105  A(35,45,51)           109.6434         calculate D2E/DX2 analytically  !
 ! A106  A(49,45,51)           107.3234         calculate D2E/DX2 analytically  !
 ! A107  A(29,50,53)           108.7156         calculate D2E/DX2 analytically  !
 ! A108  A(29,50,57)           105.1214         calculate D2E/DX2 analytically  !
 ! A109  A(29,50,58)           114.8582         calculate D2E/DX2 analytically  !
 ! A110  A(53,50,57)           108.9291         calculate D2E/DX2 analytically  !
 ! A111  A(53,50,58)           110.7069         calculate D2E/DX2 analytically  !
 ! A112  A(57,50,58)           108.241          calculate D2E/DX2 analytically  !
 ! A113  A(44,53,50)           117.126          calculate D2E/DX2 analytically  !
 ! A114  A(44,53,59)           121.2897         calculate D2E/DX2 analytically  !
 ! A115  A(50,53,59)           121.5382         calculate D2E/DX2 analytically  !
 ! A116  A(43,54,56)           119.339          calculate D2E/DX2 analytically  !
 ! A117  A(43,54,60)           119.2382         calculate D2E/DX2 analytically  !
 ! A118  A(56,54,60)           121.4227         calculate D2E/DX2 analytically  !
 ! A119  A(53,59,60)           119.3539         calculate D2E/DX2 analytically  !
 ! A120  A(53,59,61)           119.3755         calculate D2E/DX2 analytically  !
 ! A121  A(60,59,61)           121.2667         calculate D2E/DX2 analytically  !
 ! A122  A(54,60,59)           118.7862         calculate D2E/DX2 analytically  !
 ! A123  A(54,60,62)           120.6724         calculate D2E/DX2 analytically  !
 ! A124  A(59,60,62)           120.5396         calculate D2E/DX2 analytically  !
 ! A125  A(70,64,123)          108.1642         calculate D2E/DX2 analytically  !
 ! A126  A(70,64,124)          113.4217         calculate D2E/DX2 analytically  !
 ! A127  A(70,64,125)          112.5629         calculate D2E/DX2 analytically  !
 ! A128  A(123,64,124)         107.3351         calculate D2E/DX2 analytically  !
 ! A129  A(123,64,125)         107.0352         calculate D2E/DX2 analytically  !
 ! A130  A(124,64,125)         108.009          calculate D2E/DX2 analytically  !
 ! A131  A(69,66,78)           112.9443         calculate D2E/DX2 analytically  !
 ! A132  A(78,68,121)          107.6104         calculate D2E/DX2 analytically  !
 ! A133  A(9,69,66)             62.7634         calculate D2E/DX2 analytically  !
 ! A134  A(64,70,80)           116.2193         calculate D2E/DX2 analytically  !
 ! A135  A(64,70,126)          110.5304         calculate D2E/DX2 analytically  !
 ! A136  A(64,70,127)          110.948          calculate D2E/DX2 analytically  !
 ! A137  A(80,70,126)          106.3662         calculate D2E/DX2 analytically  !
 ! A138  A(80,70,127)          106.5967         calculate D2E/DX2 analytically  !
 ! A139  A(126,70,127)         105.5294         calculate D2E/DX2 analytically  !
 ! A140  A(65,72,71)           108.3278         calculate D2E/DX2 analytically  !
 ! A141  A(65,72,74)           107.4384         calculate D2E/DX2 analytically  !
 ! A142  A(65,72,82)           112.1025         calculate D2E/DX2 analytically  !
 ! A143  A(71,72,74)           107.2341         calculate D2E/DX2 analytically  !
 ! A144  A(71,72,82)           108.9506         calculate D2E/DX2 analytically  !
 ! A145  A(74,72,82)           112.5922         calculate D2E/DX2 analytically  !
 ! A146  A(67,75,73)           107.8758         calculate D2E/DX2 analytically  !
 ! A147  A(67,75,76)           108.3239         calculate D2E/DX2 analytically  !
 ! A148  A(67,75,86)           113.1544         calculate D2E/DX2 analytically  !
 ! A149  A(73,75,76)           107.7245         calculate D2E/DX2 analytically  !
 ! A150  A(73,75,86)           110.3194         calculate D2E/DX2 analytically  !
 ! A151  A(76,75,86)           109.2794         calculate D2E/DX2 analytically  !
 ! A152  A(66,78,68)            84.9562         calculate D2E/DX2 analytically  !
 ! A153  A(66,78,87)           106.4154         calculate D2E/DX2 analytically  !
 ! A154  A(66,78,95)            93.7877         calculate D2E/DX2 analytically  !
 ! A155  A(68,78,87)            94.9617         calculate D2E/DX2 analytically  !
 ! A156  A(68,78,102)           87.4236         calculate D2E/DX2 analytically  !
 ! A157  A(87,78,95)            90.6005         calculate D2E/DX2 analytically  !
 ! A158  A(87,78,102)           81.7962         calculate D2E/DX2 analytically  !
 ! A159  A(95,78,102)           93.0678         calculate D2E/DX2 analytically  !
 ! A160  A(70,80,81)           110.0652         calculate D2E/DX2 analytically  !
 ! A161  A(70,80,93)           112.3667         calculate D2E/DX2 analytically  !
 ! A162  A(81,80,93)           109.7553         calculate D2E/DX2 analytically  !
 ! A163  A(77,81,80)           105.1128         calculate D2E/DX2 analytically  !
 ! A164  A(77,81,88)           110.8529         calculate D2E/DX2 analytically  !
 ! A165  A(77,81,101)          105.8285         calculate D2E/DX2 analytically  !
 ! A166  A(80,81,88)           111.8736         calculate D2E/DX2 analytically  !
 ! A167  A(80,81,101)          112.6553         calculate D2E/DX2 analytically  !
 ! A168  A(88,81,101)          110.239          calculate D2E/DX2 analytically  !
 ! A169  A(72,82,85)           109.3406         calculate D2E/DX2 analytically  !
 ! A170  A(72,82,87)           107.6327         calculate D2E/DX2 analytically  !
 ! A171  A(72,82,96)           110.5738         calculate D2E/DX2 analytically  !
 ! A172  A(85,82,87)           107.0939         calculate D2E/DX2 analytically  !
 ! A173  A(85,82,96)           107.338          calculate D2E/DX2 analytically  !
 ! A174  A(87,82,96)           114.7242         calculate D2E/DX2 analytically  !
 ! A175  A(79,85,82)           110.6243         calculate D2E/DX2 analytically  !
 ! A176  A(79,85,83)           109.4485         calculate D2E/DX2 analytically  !
 ! A177  A(79,85,104)          110.44           calculate D2E/DX2 analytically  !
 ! A178  A(82,85,83)           107.5232         calculate D2E/DX2 analytically  !
 ! A179  A(82,85,104)          111.8288         calculate D2E/DX2 analytically  !
 ! A180  A(83,85,104)          106.8376         calculate D2E/DX2 analytically  !
 ! A181  A(75,86,87)           105.4894         calculate D2E/DX2 analytically  !
 ! A182  A(75,86,89)           109.1544         calculate D2E/DX2 analytically  !
 ! A183  A(75,86,98)           109.2241         calculate D2E/DX2 analytically  !
 ! A184  A(87,86,89)           115.5457         calculate D2E/DX2 analytically  !
 ! A185  A(87,86,98)           110.399          calculate D2E/DX2 analytically  !
 ! A186  A(89,86,98)           106.9279         calculate D2E/DX2 analytically  !
 ! A187  A(78,87,82)           118.4201         calculate D2E/DX2 analytically  !
 ! A188  A(78,87,86)           119.1873         calculate D2E/DX2 analytically  !
 ! A189  A(78,87,108)           96.3482         calculate D2E/DX2 analytically  !
 ! A190  A(82,87,86)           110.4976         calculate D2E/DX2 analytically  !
 ! A191  A(82,87,108)          102.7051         calculate D2E/DX2 analytically  !
 ! A192  A(86,87,108)          106.1591         calculate D2E/DX2 analytically  !
 ! A193  A(84,89,86)           112.8344         calculate D2E/DX2 analytically  !
 ! A194  A(84,89,92)           107.2058         calculate D2E/DX2 analytically  !
 ! A195  A(84,89,106)          108.9415         calculate D2E/DX2 analytically  !
 ! A196  A(86,89,92)           107.9373         calculate D2E/DX2 analytically  !
 ! A197  A(86,89,106)          112.3249         calculate D2E/DX2 analytically  !
 ! A198  A(92,89,106)          107.3182         calculate D2E/DX2 analytically  !
 ! A199  A(80,93,90)           106.9478         calculate D2E/DX2 analytically  !
 ! A200  A(80,93,103)          113.8547         calculate D2E/DX2 analytically  !
 ! A201  A(80,93,105)          109.3286         calculate D2E/DX2 analytically  !
 ! A202  A(90,93,103)          110.3059         calculate D2E/DX2 analytically  !
 ! A203  A(90,93,105)          106.4812         calculate D2E/DX2 analytically  !
 ! A204  A(103,93,105)         109.6358         calculate D2E/DX2 analytically  !
 ! A205  A(82,96,94)           107.3885         calculate D2E/DX2 analytically  !
 ! A206  A(82,96,99)           114.0253         calculate D2E/DX2 analytically  !
 ! A207  A(82,96,110)          112.8007         calculate D2E/DX2 analytically  !
 ! A208  A(94,96,99)           107.1199         calculate D2E/DX2 analytically  !
 ! A209  A(94,96,110)          106.5483         calculate D2E/DX2 analytically  !
 ! A210  A(99,96,110)          108.536          calculate D2E/DX2 analytically  !
 ! A211  A(86,98,97)           113.4667         calculate D2E/DX2 analytically  !
 ! A212  A(86,98,100)          108.1468         calculate D2E/DX2 analytically  !
 ! A213  A(86,98,113)          111.9002         calculate D2E/DX2 analytically  !
 ! A214  A(97,98,100)          107.1285         calculate D2E/DX2 analytically  !
 ! A215  A(97,98,113)          108.882          calculate D2E/DX2 analytically  !
 ! A216  A(100,98,113)         107.0047         calculate D2E/DX2 analytically  !
 ! A217  A(81,101,102)         115.2523         calculate D2E/DX2 analytically  !
 ! A218  A(81,101,112)         123.9058         calculate D2E/DX2 analytically  !
 ! A219  A(102,101,112)        120.7238         calculate D2E/DX2 analytically  !
 ! A220  A(78,102,101)         115.8666         calculate D2E/DX2 analytically  !
 ! A221  A(78,102,111)         122.968          calculate D2E/DX2 analytically  !
 ! A222  A(101,102,111)        121.165          calculate D2E/DX2 analytically  !
 ! A223  A(91,103,93)          111.3132         calculate D2E/DX2 analytically  !
 ! A224  A(91,103,107)         107.8999         calculate D2E/DX2 analytically  !
 ! A225  A(91,103,109)         108.224          calculate D2E/DX2 analytically  !
 ! A226  A(93,103,107)         111.902          calculate D2E/DX2 analytically  !
 ! A227  A(93,103,109)         109.4899         calculate D2E/DX2 analytically  !
 ! A228  A(107,103,109)        107.8797         calculate D2E/DX2 analytically  !
 ! A229  A(87,108,111)         109.6242         calculate D2E/DX2 analytically  !
 ! A230  A(87,108,115)         105.4846         calculate D2E/DX2 analytically  !
 ! A231  A(87,108,116)         114.4362         calculate D2E/DX2 analytically  !
 ! A232  A(111,108,115)        108.1519         calculate D2E/DX2 analytically  !
 ! A233  A(111,108,116)        111.3099         calculate D2E/DX2 analytically  !
 ! A234  A(115,108,116)        107.4721         calculate D2E/DX2 analytically  !
 ! A235  A(102,111,108)        115.936          calculate D2E/DX2 analytically  !
 ! A236  A(102,111,117)        120.3543         calculate D2E/DX2 analytically  !
 ! A237  A(108,111,117)        123.7055         calculate D2E/DX2 analytically  !
 ! A238  A(101,112,114)        119.6769         calculate D2E/DX2 analytically  !
 ! A239  A(101,112,118)        119.0522         calculate D2E/DX2 analytically  !
 ! A240  A(114,112,118)        121.2691         calculate D2E/DX2 analytically  !
 ! A241  A(111,117,118)        119.2715         calculate D2E/DX2 analytically  !
 ! A242  A(111,117,119)        119.616          calculate D2E/DX2 analytically  !
 ! A243  A(118,117,119)        121.1123         calculate D2E/DX2 analytically  !
 ! A244  A(112,118,117)        119.4246         calculate D2E/DX2 analytically  !
 ! A245  A(112,118,120)        120.3377         calculate D2E/DX2 analytically  !
 ! A246  A(117,118,120)        120.2375         calculate D2E/DX2 analytically  !
 ! A247  A(9,121,68)           122.1689         calculate D2E/DX2 analytically  !
 ! A248  A(9,121,128)           54.6087         calculate D2E/DX2 analytically  !
 ! A249  A(68,121,128)         141.5056         calculate D2E/DX2 analytically  !
 ! A250  A(8,128,121)           81.5781         calculate D2E/DX2 analytically  !
 ! A251  L(6,20,44,8,-1)       176.1391         calculate D2E/DX2 analytically  !
 ! A252  L(8,20,37,6,-1)       179.0034         calculate D2E/DX2 analytically  !
 ! A253  L(20,37,63,1,-1)      177.3145         calculate D2E/DX2 analytically  !
 ! A254  L(66,78,102,68,-1)    172.3798         calculate D2E/DX2 analytically  !
 ! A255  L(68,78,95,66,-1)     178.7438         calculate D2E/DX2 analytically  !
 ! A256  L(78,95,122,7,-1)     180.0161         calculate D2E/DX2 analytically  !
 ! A257  L(6,20,44,8,-2)       171.9403         calculate D2E/DX2 analytically  !
 ! A258  L(8,20,37,6,-2)       169.8188         calculate D2E/DX2 analytically  !
 ! A259  L(20,37,63,1,-2)      177.9662         calculate D2E/DX2 analytically  !
 ! A260  L(66,78,102,68,-2)    187.6178         calculate D2E/DX2 analytically  !
 ! A261  L(68,78,95,66,-2)     174.556          calculate D2E/DX2 analytically  !
 ! A262  L(78,95,122,7,-2)     176.9697         calculate D2E/DX2 analytically  !
 ! D1    D(1,2,10,12)          -65.3711         calculate D2E/DX2 analytically  !
 ! D2    D(1,2,10,16)           52.5887         calculate D2E/DX2 analytically  !
 ! D3    D(1,2,10,22)          170.2162         calculate D2E/DX2 analytically  !
 ! D4    D(3,2,10,12)           54.4642         calculate D2E/DX2 analytically  !
 ! D5    D(3,2,10,16)          172.424          calculate D2E/DX2 analytically  !
 ! D6    D(3,2,10,22)          -69.9485         calculate D2E/DX2 analytically  !
 ! D7    D(4,2,10,12)          176.5071         calculate D2E/DX2 analytically  !
 ! D8    D(4,2,10,16)          -65.5331         calculate D2E/DX2 analytically  !
 ! D9    D(4,2,10,22)           52.0944         calculate D2E/DX2 analytically  !
 ! D10   D(20,6,9,69)         -109.4347         calculate D2E/DX2 analytically  !
 ! D11   D(20,6,9,121)          65.4824         calculate D2E/DX2 analytically  !
 ! D12   D(9,6,20,8)           -17.7414         calculate D2E/DX2 analytically  !
 ! D13   D(9,6,20,29)           73.7082         calculate D2E/DX2 analytically  !
 ! D14   D(9,6,20,37)          172.4398         calculate D2E/DX2 analytically  !
 ! D15   D(9,6,44,43)          -72.1378         calculate D2E/DX2 analytically  !
 ! D16   D(9,6,44,53)           98.1404         calculate D2E/DX2 analytically  !
 ! D17   D(128,8,20,6)          41.1381         calculate D2E/DX2 analytically  !
 ! D18   D(128,8,20,29)        -56.0835         calculate D2E/DX2 analytically  !
 ! D19   D(128,8,20,44)       -130.8021         calculate D2E/DX2 analytically  !
 ! D20   D(20,8,128,121)      -109.4299         calculate D2E/DX2 analytically  !
 ! D21   D(6,9,69,66)          162.0011         calculate D2E/DX2 analytically  !
 ! D22   D(121,9,69,66)        -13.6642         calculate D2E/DX2 analytically  !
 ! D23   D(6,9,121,68)         118.6527         calculate D2E/DX2 analytically  !
 ! D24   D(6,9,121,128)       -107.9267         calculate D2E/DX2 analytically  !
 ! D25   D(69,9,121,68)        -64.5717         calculate D2E/DX2 analytically  !
 ! D26   D(69,9,121,128)        68.849          calculate D2E/DX2 analytically  !
 ! D27   D(2,10,22,23)        -176.471          calculate D2E/DX2 analytically  !
 ! D28   D(2,10,22,35)          53.7886         calculate D2E/DX2 analytically  !
 ! D29   D(12,10,22,23)         59.2853         calculate D2E/DX2 analytically  !
 ! D30   D(12,10,22,35)        -70.4551         calculate D2E/DX2 analytically  !
 ! D31   D(16,10,22,23)        -56.8769         calculate D2E/DX2 analytically  !
 ! D32   D(16,10,22,35)        173.3826         calculate D2E/DX2 analytically  !
 ! D33   D(5,13,24,27)          62.4735         calculate D2E/DX2 analytically  !
 ! D34   D(5,13,24,29)         -51.8865         calculate D2E/DX2 analytically  !
 ! D35   D(5,13,24,38)        -178.7981         calculate D2E/DX2 analytically  !
 ! D36   D(11,13,24,27)        -56.4047         calculate D2E/DX2 analytically  !
 ! D37   D(11,13,24,29)       -170.7647         calculate D2E/DX2 analytically  !
 ! D38   D(11,13,24,38)         62.3236         calculate D2E/DX2 analytically  !
 ! D39   D(15,13,24,27)       -174.9805         calculate D2E/DX2 analytically  !
 ! D40   D(15,13,24,29)         70.6595         calculate D2E/DX2 analytically  !
 ! D41   D(15,13,24,38)        -56.2521         calculate D2E/DX2 analytically  !
 ! D42   D(7,17,28,29)         -66.4824         calculate D2E/DX2 analytically  !
 ! D43   D(7,17,28,31)          59.3871         calculate D2E/DX2 analytically  !
 ! D44   D(7,17,28,40)         178.2921         calculate D2E/DX2 analytically  !
 ! D45   D(14,17,28,29)         54.6748         calculate D2E/DX2 analytically  !
 ! D46   D(14,17,28,31)       -179.4558         calculate D2E/DX2 analytically  !
 ! D47   D(14,17,28,40)        -60.5507         calculate D2E/DX2 analytically  !
 ! D48   D(18,17,28,29)        174.3425         calculate D2E/DX2 analytically  !
 ! D49   D(18,17,28,31)        -59.7881         calculate D2E/DX2 analytically  !
 ! D50   D(18,17,28,40)         59.117          calculate D2E/DX2 analytically  !
 ! D51   D(6,20,29,24)        -104.3695         calculate D2E/DX2 analytically  !
 ! D52   D(6,20,29,28)          40.6025         calculate D2E/DX2 analytically  !
 ! D53   D(6,20,29,50)         148.3406         calculate D2E/DX2 analytically  !
 ! D54   D(8,20,29,24)         -16.6976         calculate D2E/DX2 analytically  !
 ! D55   D(8,20,29,28)         128.2744         calculate D2E/DX2 analytically  !
 ! D56   D(8,20,29,50)        -123.9875         calculate D2E/DX2 analytically  !
 ! D57   D(37,20,29,24)        162.9753         calculate D2E/DX2 analytically  !
 ! D58   D(37,20,29,28)        -52.0527         calculate D2E/DX2 analytically  !
 ! D59   D(37,20,29,50)         55.6854         calculate D2E/DX2 analytically  !
 ! D60   D(44,20,29,24)         71.445          calculate D2E/DX2 analytically  !
 ! D61   D(44,20,29,28)       -143.583          calculate D2E/DX2 analytically  !
 ! D62   D(44,20,29,50)        -35.8448         calculate D2E/DX2 analytically  !
 ! D63   D(8,20,44,43)         -55.8395         calculate D2E/DX2 analytically  !
 ! D64   D(8,20,44,53)         118.4616         calculate D2E/DX2 analytically  !
 ! D65   D(29,20,44,43)       -148.0239         calculate D2E/DX2 analytically  !
 ! D66   D(29,20,44,53)         26.2772         calculate D2E/DX2 analytically  !
 ! D67   D(37,20,44,43)        114.2001         calculate D2E/DX2 analytically  !
 ! D68   D(37,20,44,53)        -71.4988         calculate D2E/DX2 analytically  !
 ! D69   D(10,22,23,19)         47.5847         calculate D2E/DX2 analytically  !
 ! D70   D(10,22,23,30)        -72.1698         calculate D2E/DX2 analytically  !
 ! D71   D(10,22,23,43)        163.3861         calculate D2E/DX2 analytically  !
 ! D72   D(35,22,23,19)        178.2784         calculate D2E/DX2 analytically  !
 ! D73   D(35,22,23,30)         58.5239         calculate D2E/DX2 analytically  !
 ! D74   D(35,22,23,43)        -65.9202         calculate D2E/DX2 analytically  !
 ! D75   D(10,22,35,32)        -63.8437         calculate D2E/DX2 analytically  !
 ! D76   D(10,22,35,45)         59.903          calculate D2E/DX2 analytically  !
 ! D77   D(10,22,35,47)       -176.9323         calculate D2E/DX2 analytically  !
 ! D78   D(23,22,35,32)        167.6249         calculate D2E/DX2 analytically  !
 ! D79   D(23,22,35,45)        -68.6284         calculate D2E/DX2 analytically  !
 ! D80   D(23,22,35,47)         54.5363         calculate D2E/DX2 analytically  !
 ! D81   D(19,23,43,44)         74.0488         calculate D2E/DX2 analytically  !
 ! D82   D(19,23,43,54)       -103.4829         calculate D2E/DX2 analytically  !
 ! D83   D(22,23,43,44)        -41.4931         calculate D2E/DX2 analytically  !
 ! D84   D(22,23,43,54)        140.9752         calculate D2E/DX2 analytically  !
 ! D85   D(30,23,43,44)       -168.0701         calculate D2E/DX2 analytically  !
 ! D86   D(30,23,43,54)         14.3982         calculate D2E/DX2 analytically  !
 ! D87   D(13,24,27,21)        -68.6871         calculate D2E/DX2 analytically  !
 ! D88   D(13,24,27,25)         51.8686         calculate D2E/DX2 analytically  !
 ! D89   D(13,24,27,46)        169.5034         calculate D2E/DX2 analytically  !
 ! D90   D(29,24,27,21)         46.625          calculate D2E/DX2 analytically  !
 ! D91   D(29,24,27,25)        167.1807         calculate D2E/DX2 analytically  !
 ! D92   D(29,24,27,46)        -75.1845         calculate D2E/DX2 analytically  !
 ! D93   D(38,24,27,21)        171.3204         calculate D2E/DX2 analytically  !
 ! D94   D(38,24,27,25)        -68.124          calculate D2E/DX2 analytically  !
 ! D95   D(38,24,27,46)         49.5109         calculate D2E/DX2 analytically  !
 ! D96   D(13,24,29,20)         89.1281         calculate D2E/DX2 analytically  !
 ! D97   D(13,24,29,28)        -57.4781         calculate D2E/DX2 analytically  !
 ! D98   D(13,24,29,50)       -169.7137         calculate D2E/DX2 analytically  !
 ! D99   D(27,24,29,20)        -26.1989         calculate D2E/DX2 analytically  !
 ! D100  D(27,24,29,28)       -172.8051         calculate D2E/DX2 analytically  !
 ! D101  D(27,24,29,50)         74.9593         calculate D2E/DX2 analytically  !
 ! D102  D(38,24,29,20)       -146.7117         calculate D2E/DX2 analytically  !
 ! D103  D(38,24,29,28)         66.6821         calculate D2E/DX2 analytically  !
 ! D104  D(38,24,29,50)        -45.5535         calculate D2E/DX2 analytically  !
 ! D105  D(13,24,38,36)        -61.2201         calculate D2E/DX2 analytically  !
 ! D106  D(13,24,38,41)         58.2841         calculate D2E/DX2 analytically  !
 ! D107  D(13,24,38,52)       -178.8784         calculate D2E/DX2 analytically  !
 ! D108  D(27,24,38,36)         56.9544         calculate D2E/DX2 analytically  !
 ! D109  D(27,24,38,41)        176.4586         calculate D2E/DX2 analytically  !
 ! D110  D(27,24,38,52)        -60.7038         calculate D2E/DX2 analytically  !
 ! D111  D(29,24,38,36)        176.1647         calculate D2E/DX2 analytically  !
 ! D112  D(29,24,38,41)        -64.3311         calculate D2E/DX2 analytically  !
 ! D113  D(29,24,38,52)         58.5065         calculate D2E/DX2 analytically  !
 ! D114  D(17,28,29,20)        -62.519          calculate D2E/DX2 analytically  !
 ! D115  D(17,28,29,24)         86.3443         calculate D2E/DX2 analytically  !
 ! D116  D(17,28,29,50)       -162.3783         calculate D2E/DX2 analytically  !
 ! D117  D(31,28,29,20)        174.4145         calculate D2E/DX2 analytically  !
 ! D118  D(31,28,29,24)        -36.7222         calculate D2E/DX2 analytically  !
 ! D119  D(31,28,29,50)         74.5552         calculate D2E/DX2 analytically  !
 ! D120  D(40,28,29,20)         52.4396         calculate D2E/DX2 analytically  !
 ! D121  D(40,28,29,24)       -158.697          calculate D2E/DX2 analytically  !
 ! D122  D(40,28,29,50)        -47.4196         calculate D2E/DX2 analytically  !
 ! D123  D(17,28,31,26)        -55.4065         calculate D2E/DX2 analytically  !
 ! D124  D(17,28,31,34)         63.3575         calculate D2E/DX2 analytically  !
 ! D125  D(17,28,31,48)       -177.8066         calculate D2E/DX2 analytically  !
 ! D126  D(29,28,31,26)         65.0521         calculate D2E/DX2 analytically  !
 ! D127  D(29,28,31,34)       -176.1839         calculate D2E/DX2 analytically  !
 ! D128  D(29,28,31,48)        -57.348          calculate D2E/DX2 analytically  !
 ! D129  D(40,28,31,26)       -173.4914         calculate D2E/DX2 analytically  !
 ! D130  D(40,28,31,34)        -54.7274         calculate D2E/DX2 analytically  !
 ! D131  D(40,28,31,48)         64.1085         calculate D2E/DX2 analytically  !
 ! D132  D(17,28,40,39)         62.312          calculate D2E/DX2 analytically  !
 ! D133  D(17,28,40,42)        -56.243          calculate D2E/DX2 analytically  !
 ! D134  D(17,28,40,55)       -174.6645         calculate D2E/DX2 analytically  !
 ! D135  D(29,28,40,39)        -51.638          calculate D2E/DX2 analytically  !
 ! D136  D(29,28,40,42)       -170.193          calculate D2E/DX2 analytically  !
 ! D137  D(29,28,40,55)         71.3855         calculate D2E/DX2 analytically  !
 ! D138  D(31,28,40,39)       -177.528          calculate D2E/DX2 analytically  !
 ! D139  D(31,28,40,42)         63.9169         calculate D2E/DX2 analytically  !
 ! D140  D(31,28,40,55)        -54.5046         calculate D2E/DX2 analytically  !
 ! D141  D(20,29,50,53)         50.0896         calculate D2E/DX2 analytically  !
 ! D142  D(20,29,50,57)        -66.4195         calculate D2E/DX2 analytically  !
 ! D143  D(20,29,50,58)        174.7288         calculate D2E/DX2 analytically  !
 ! D144  D(24,29,50,53)        -74.5419         calculate D2E/DX2 analytically  !
 ! D145  D(24,29,50,57)        168.9489         calculate D2E/DX2 analytically  !
 ! D146  D(24,29,50,58)         50.0973         calculate D2E/DX2 analytically  !
 ! D147  D(28,29,50,53)        168.5052         calculate D2E/DX2 analytically  !
 ! D148  D(28,29,50,57)         51.996          calculate D2E/DX2 analytically  !
 ! D149  D(28,29,50,58)        -66.8556         calculate D2E/DX2 analytically  !
 ! D150  D(22,35,45,33)        -61.6704         calculate D2E/DX2 analytically  !
 ! D151  D(22,35,45,49)         59.8246         calculate D2E/DX2 analytically  !
 ! D152  D(22,35,45,51)        179.0672         calculate D2E/DX2 analytically  !
 ! D153  D(32,35,45,33)         60.8055         calculate D2E/DX2 analytically  !
 ! D154  D(32,35,45,49)       -177.6995         calculate D2E/DX2 analytically  !
 ! D155  D(32,35,45,51)        -58.457          calculate D2E/DX2 analytically  !
 ! D156  D(47,35,45,33)        176.5747         calculate D2E/DX2 analytically  !
 ! D157  D(47,35,45,49)        -61.9304         calculate D2E/DX2 analytically  !
 ! D158  D(47,35,45,51)         57.3122         calculate D2E/DX2 analytically  !
 ! D159  D(23,43,44,20)         -1.0081         calculate D2E/DX2 analytically  !
 ! D160  D(23,43,44,53)       -175.4197         calculate D2E/DX2 analytically  !
 ! D161  D(54,43,44,20)        176.5334         calculate D2E/DX2 analytically  !
 ! D162  D(54,43,44,53)          2.1217         calculate D2E/DX2 analytically  !
 ! D163  D(23,43,54,56)         -3.08           calculate D2E/DX2 analytically  !
 ! D164  D(23,43,54,60)        176.9539         calculate D2E/DX2 analytically  !
 ! D165  D(44,43,54,56)        179.5158         calculate D2E/DX2 analytically  !
 ! D166  D(44,43,54,60)         -0.4503         calculate D2E/DX2 analytically  !
 ! D167  D(20,44,53,50)          0.8367         calculate D2E/DX2 analytically  !
 ! D168  D(20,44,53,59)       -176.7301         calculate D2E/DX2 analytically  !
 ! D169  D(43,44,53,50)        175.0704         calculate D2E/DX2 analytically  !
 ! D170  D(43,44,53,59)         -2.4965         calculate D2E/DX2 analytically  !
 ! D171  D(29,50,53,44)        -40.4661         calculate D2E/DX2 analytically  !
 ! D172  D(29,50,53,59)        137.0943         calculate D2E/DX2 analytically  !
 ! D173  D(57,50,53,44)         73.573          calculate D2E/DX2 analytically  !
 ! D174  D(57,50,53,59)       -108.8666         calculate D2E/DX2 analytically  !
 ! D175  D(58,50,53,44)       -167.5194         calculate D2E/DX2 analytically  !
 ! D176  D(58,50,53,59)         10.041          calculate D2E/DX2 analytically  !
 ! D177  D(44,53,59,60)          1.2001         calculate D2E/DX2 analytically  !
 ! D178  D(44,53,59,61)       -179.497          calculate D2E/DX2 analytically  !
 ! D179  D(50,53,59,60)       -176.259          calculate D2E/DX2 analytically  !
 ! D180  D(50,53,59,61)          3.0438         calculate D2E/DX2 analytically  !
 ! D181  D(43,54,60,59)         -0.8383         calculate D2E/DX2 analytically  !
 ! D182  D(43,54,60,62)        179.6486         calculate D2E/DX2 analytically  !
 ! D183  D(56,54,60,59)        179.1963         calculate D2E/DX2 analytically  !
 ! D184  D(56,54,60,62)         -0.3168         calculate D2E/DX2 analytically  !
 ! D185  D(53,59,60,54)          0.4752         calculate D2E/DX2 analytically  !
 ! D186  D(53,59,60,62)        179.989          calculate D2E/DX2 analytically  !
 ! D187  D(61,59,60,54)       -178.814          calculate D2E/DX2 analytically  !
 ! D188  D(61,59,60,62)          0.6998         calculate D2E/DX2 analytically  !
 ! D189  D(123,64,70,80)      -179.7777         calculate D2E/DX2 analytically  !
 ! D190  D(123,64,70,126)      -58.4573         calculate D2E/DX2 analytically  !
 ! D191  D(123,64,70,127)       58.2534         calculate D2E/DX2 analytically  !
 ! D192  D(124,64,70,80)        61.2838         calculate D2E/DX2 analytically  !
 ! D193  D(124,64,70,126)     -177.3959         calculate D2E/DX2 analytically  !
 ! D194  D(124,64,70,127)      -60.6851         calculate D2E/DX2 analytically  !
 ! D195  D(125,64,70,80)       -61.7303         calculate D2E/DX2 analytically  !
 ! D196  D(125,64,70,126)       59.5901         calculate D2E/DX2 analytically  !
 ! D197  D(125,64,70,127)      176.3008         calculate D2E/DX2 analytically  !
 ! D198  D(78,66,69,9)         110.9091         calculate D2E/DX2 analytically  !
 ! D199  D(69,66,78,68)       -146.6354         calculate D2E/DX2 analytically  !
 ! D200  D(69,66,78,87)        -52.9365         calculate D2E/DX2 analytically  !
 ! D201  D(69,66,78,95)         38.8086         calculate D2E/DX2 analytically  !
 ! D202  D(69,66,102,101)      148.7404         calculate D2E/DX2 analytically  !
 ! D203  D(69,66,102,111)      -33.1352         calculate D2E/DX2 analytically  !
 ! D204  D(121,68,78,66)        -1.8412         calculate D2E/DX2 analytically  !
 ! D205  D(121,68,78,87)      -107.9285         calculate D2E/DX2 analytically  !
 ! D206  D(121,68,78,102)      170.541          calculate D2E/DX2 analytically  !
 ! D207  D(78,68,121,9)         45.4962         calculate D2E/DX2 analytically  !
 ! D208  D(78,68,121,128)      -26.5455         calculate D2E/DX2 analytically  !
 ! D209  D(64,70,80,81)         63.8952         calculate D2E/DX2 analytically  !
 ! D210  D(64,70,80,93)        -58.749          calculate D2E/DX2 analytically  !
 ! D211  D(126,70,80,81)       -59.6135         calculate D2E/DX2 analytically  !
 ! D212  D(126,70,80,93)       177.7422         calculate D2E/DX2 analytically  !
 ! D213  D(127,70,80,81)      -171.8666         calculate D2E/DX2 analytically  !
 ! D214  D(127,70,80,93)        65.4891         calculate D2E/DX2 analytically  !
 ! D215  D(65,72,82,85)         62.3865         calculate D2E/DX2 analytically  !
 ! D216  D(65,72,82,87)        -53.6177         calculate D2E/DX2 analytically  !
 ! D217  D(65,72,82,96)       -179.6381         calculate D2E/DX2 analytically  !
 ! D218  D(71,72,82,85)        -57.5002         calculate D2E/DX2 analytically  !
 ! D219  D(71,72,82,87)       -173.5044         calculate D2E/DX2 analytically  !
 ! D220  D(71,72,82,96)         60.4752         calculate D2E/DX2 analytically  !
 ! D221  D(74,72,82,85)       -176.3271         calculate D2E/DX2 analytically  !
 ! D222  D(74,72,82,87)         67.6687         calculate D2E/DX2 analytically  !
 ! D223  D(74,72,82,96)        -58.3517         calculate D2E/DX2 analytically  !
 ! D224  D(67,75,86,87)        -51.4782         calculate D2E/DX2 analytically  !
 ! D225  D(67,75,86,89)         73.2697         calculate D2E/DX2 analytically  !
 ! D226  D(67,75,86,98)       -170.1432         calculate D2E/DX2 analytically  !
 ! D227  D(73,75,86,87)         69.4765         calculate D2E/DX2 analytically  !
 ! D228  D(73,75,86,89)       -165.7755         calculate D2E/DX2 analytically  !
 ! D229  D(73,75,86,98)        -49.1885         calculate D2E/DX2 analytically  !
 ! D230  D(76,75,86,87)       -172.2646         calculate D2E/DX2 analytically  !
 ! D231  D(76,75,86,89)        -47.5166         calculate D2E/DX2 analytically  !
 ! D232  D(76,75,86,98)         69.0704         calculate D2E/DX2 analytically  !
 ! D233  D(66,78,87,82)        -91.7291         calculate D2E/DX2 analytically  !
 ! D234  D(66,78,87,86)         47.589          calculate D2E/DX2 analytically  !
 ! D235  D(66,78,87,108)       160.102          calculate D2E/DX2 analytically  !
 ! D236  D(68,78,87,82)         -5.5376         calculate D2E/DX2 analytically  !
 ! D237  D(68,78,87,86)        133.7805         calculate D2E/DX2 analytically  !
 ! D238  D(68,78,87,108)      -113.7065         calculate D2E/DX2 analytically  !
 ! D239  D(95,78,87,82)        174.1445         calculate D2E/DX2 analytically  !
 ! D240  D(95,78,87,86)        -46.5374         calculate D2E/DX2 analytically  !
 ! D241  D(95,78,87,108)        65.9755         calculate D2E/DX2 analytically  !
 ! D242  D(102,78,87,82)        81.1315         calculate D2E/DX2 analytically  !
 ! D243  D(102,78,87,86)      -139.5504         calculate D2E/DX2 analytically  !
 ! D244  D(102,78,87,108)      -27.0375         calculate D2E/DX2 analytically  !
 ! D245  D(68,78,102,101)      -64.6986         calculate D2E/DX2 analytically  !
 ! D246  D(68,78,102,111)      115.5323         calculate D2E/DX2 analytically  !
 ! D247  D(87,78,102,101)     -160.09           calculate D2E/DX2 analytically  !
 ! D248  D(87,78,102,111)       20.1409         calculate D2E/DX2 analytically  !
 ! D249  D(95,78,102,101)      109.7451         calculate D2E/DX2 analytically  !
 ! D250  D(95,78,102,111)      -70.024          calculate D2E/DX2 analytically  !
 ! D251  D(70,80,81,77)         46.0955         calculate D2E/DX2 analytically  !
 ! D252  D(70,80,81,88)        -74.2854         calculate D2E/DX2 analytically  !
 ! D253  D(70,80,81,101)       160.859          calculate D2E/DX2 analytically  !
 ! D254  D(93,80,81,77)        170.2646         calculate D2E/DX2 analytically  !
 ! D255  D(93,80,81,88)         49.8837         calculate D2E/DX2 analytically  !
 ! D256  D(93,80,81,101)       -74.9719         calculate D2E/DX2 analytically  !
 ! D257  D(70,80,93,90)       -172.1312         calculate D2E/DX2 analytically  !
 ! D258  D(70,80,93,103)       -50.0293         calculate D2E/DX2 analytically  !
 ! D259  D(70,80,93,105)        72.9596         calculate D2E/DX2 analytically  !
 ! D260  D(81,80,93,90)         65.05           calculate D2E/DX2 analytically  !
 ! D261  D(81,80,93,103)      -172.8482         calculate D2E/DX2 analytically  !
 ! D262  D(81,80,93,105)       -49.8593         calculate D2E/DX2 analytically  !
 ! D263  D(77,81,101,102)       77.184          calculate D2E/DX2 analytically  !
 ! D264  D(77,81,101,112)      -98.8779         calculate D2E/DX2 analytically  !
 ! D265  D(80,81,101,102)      -37.1458         calculate D2E/DX2 analytically  !
 ! D266  D(80,81,101,112)      146.7923         calculate D2E/DX2 analytically  !
 ! D267  D(88,81,101,102)     -162.8903         calculate D2E/DX2 analytically  !
 ! D268  D(88,81,101,112)       21.0478         calculate D2E/DX2 analytically  !
 ! D269  D(72,82,85,79)        -61.0359         calculate D2E/DX2 analytically  !
 ! D270  D(72,82,85,83)         58.43           calculate D2E/DX2 analytically  !
 ! D271  D(72,82,85,104)       175.4107         calculate D2E/DX2 analytically  !
 ! D272  D(87,82,85,79)         55.311          calculate D2E/DX2 analytically  !
 ! D273  D(87,82,85,83)        174.7769         calculate D2E/DX2 analytically  !
 ! D274  D(87,82,85,104)       -68.2424         calculate D2E/DX2 analytically  !
 ! D275  D(96,82,85,79)        178.9816         calculate D2E/DX2 analytically  !
 ! D276  D(96,82,85,83)        -61.5525         calculate D2E/DX2 analytically  !
 ! D277  D(96,82,85,104)        55.4282         calculate D2E/DX2 analytically  !
 ! D278  D(72,82,87,78)         77.1509         calculate D2E/DX2 analytically  !
 ! D279  D(72,82,87,86)        -65.4359         calculate D2E/DX2 analytically  !
 ! D280  D(72,82,87,108)      -178.3193         calculate D2E/DX2 analytically  !
 ! D281  D(85,82,87,78)        -40.3211         calculate D2E/DX2 analytically  !
 ! D282  D(85,82,87,86)        177.0921         calculate D2E/DX2 analytically  !
 ! D283  D(85,82,87,108)        64.2087         calculate D2E/DX2 analytically  !
 ! D284  D(96,82,87,78)       -159.3237         calculate D2E/DX2 analytically  !
 ! D285  D(96,82,87,86)         58.0895         calculate D2E/DX2 analytically  !
 ! D286  D(96,82,87,108)       -54.7939         calculate D2E/DX2 analytically  !
 ! D287  D(72,82,96,94)        -69.3776         calculate D2E/DX2 analytically  !
 ! D288  D(72,82,96,99)         49.133          calculate D2E/DX2 analytically  !
 ! D289  D(72,82,96,110)       173.5312         calculate D2E/DX2 analytically  !
 ! D290  D(85,82,96,94)         49.8162         calculate D2E/DX2 analytically  !
 ! D291  D(85,82,96,99)        168.3268         calculate D2E/DX2 analytically  !
 ! D292  D(85,82,96,110)       -67.275          calculate D2E/DX2 analytically  !
 ! D293  D(87,82,96,94)        168.6819         calculate D2E/DX2 analytically  !
 ! D294  D(87,82,96,99)        -72.8075         calculate D2E/DX2 analytically  !
 ! D295  D(87,82,96,110)        51.5908         calculate D2E/DX2 analytically  !
 ! D296  D(75,86,87,78)        -43.8757         calculate D2E/DX2 analytically  !
 ! D297  D(75,86,87,82)         98.3866         calculate D2E/DX2 analytically  !
 ! D298  D(75,86,87,108)      -150.9562         calculate D2E/DX2 analytically  !
 ! D299  D(89,86,87,78)       -164.5279         calculate D2E/DX2 analytically  !
 ! D300  D(89,86,87,82)        -22.2657         calculate D2E/DX2 analytically  !
 ! D301  D(89,86,87,108)        88.3916         calculate D2E/DX2 analytically  !
 ! D302  D(98,86,87,78)         74.0023         calculate D2E/DX2 analytically  !
 ! D303  D(98,86,87,82)       -143.7354         calculate D2E/DX2 analytically  !
 ! D304  D(98,86,87,108)       -33.0781         calculate D2E/DX2 analytically  !
 ! D305  D(75,86,89,84)        -56.3159         calculate D2E/DX2 analytically  !
 ! D306  D(75,86,89,92)         61.9563         calculate D2E/DX2 analytically  !
 ! D307  D(75,86,89,106)      -179.9336         calculate D2E/DX2 analytically  !
 ! D308  D(87,86,89,84)         62.3276         calculate D2E/DX2 analytically  !
 ! D309  D(87,86,89,92)       -179.4002         calculate D2E/DX2 analytically  !
 ! D310  D(87,86,89,106)       -61.2901         calculate D2E/DX2 analytically  !
 ! D311  D(98,86,89,84)       -174.3543         calculate D2E/DX2 analytically  !
 ! D312  D(98,86,89,92)        -56.0821         calculate D2E/DX2 analytically  !
 ! D313  D(98,86,89,106)        62.0279         calculate D2E/DX2 analytically  !
 ! D314  D(75,86,98,97)         63.6765         calculate D2E/DX2 analytically  !
 ! D315  D(75,86,98,100)       -55.0195         calculate D2E/DX2 analytically  !
 ! D316  D(75,86,98,113)      -172.6296         calculate D2E/DX2 analytically  !
 ! D317  D(87,86,98,97)        -51.882          calculate D2E/DX2 analytically  !
 ! D318  D(87,86,98,100)      -170.578          calculate D2E/DX2 analytically  !
 ! D319  D(87,86,98,113)        71.812          calculate D2E/DX2 analytically  !
 ! D320  D(89,86,98,97)       -178.3308         calculate D2E/DX2 analytically  !
 ! D321  D(89,86,98,100)        62.9732         calculate D2E/DX2 analytically  !
 ! D322  D(89,86,98,113)       -54.6368         calculate D2E/DX2 analytically  !
 ! D323  D(78,87,108,111)       36.2393         calculate D2E/DX2 analytically  !
 ! D324  D(78,87,108,115)      -79.9913         calculate D2E/DX2 analytically  !
 ! D325  D(78,87,108,116)      162.0987         calculate D2E/DX2 analytically  !
 ! D326  D(82,87,108,111)      -84.8231         calculate D2E/DX2 analytically  !
 ! D327  D(82,87,108,115)      158.9462         calculate D2E/DX2 analytically  !
 ! D328  D(82,87,108,116)       41.0363         calculate D2E/DX2 analytically  !
 ! D329  D(86,87,108,111)      159.1338         calculate D2E/DX2 analytically  !
 ! D330  D(86,87,108,115)       42.9031         calculate D2E/DX2 analytically  !
 ! D331  D(86,87,108,116)      -75.0068         calculate D2E/DX2 analytically  !
 ! D332  D(80,93,103,91)       -45.8149         calculate D2E/DX2 analytically  !
 ! D333  D(80,93,103,107)       75.0116         calculate D2E/DX2 analytically  !
 ! D334  D(80,93,103,109)     -165.4304         calculate D2E/DX2 analytically  !
 ! D335  D(90,93,103,91)        74.4151         calculate D2E/DX2 analytically  !
 ! D336  D(90,93,103,107)     -164.7585         calculate D2E/DX2 analytically  !
 ! D337  D(90,93,103,109)      -45.2004         calculate D2E/DX2 analytically  !
 ! D338  D(105,93,103,91)     -168.6358         calculate D2E/DX2 analytically  !
 ! D339  D(105,93,103,107)     -47.8094         calculate D2E/DX2 analytically  !
 ! D340  D(105,93,103,109)      71.7487         calculate D2E/DX2 analytically  !
 ! D341  D(81,101,102,78)        4.6184         calculate D2E/DX2 analytically  !
 ! D342  D(81,101,102,111)    -175.608          calculate D2E/DX2 analytically  !
 ! D343  D(112,101,102,78)    -179.1835         calculate D2E/DX2 analytically  !
 ! D344  D(112,101,102,111)      0.5901         calculate D2E/DX2 analytically  !
 ! D345  D(81,101,112,114)      -4.6788         calculate D2E/DX2 analytically  !
 ! D346  D(81,101,112,118)     174.8506         calculate D2E/DX2 analytically  !
 ! D347  D(102,101,112,114)    179.4649         calculate D2E/DX2 analytically  !
 ! D348  D(102,101,112,118)     -1.0057         calculate D2E/DX2 analytically  !
 ! D349  D(78,102,111,108)       0.7611         calculate D2E/DX2 analytically  !
 ! D350  D(78,102,111,117)    -179.9645         calculate D2E/DX2 analytically  !
 ! D351  D(101,102,111,108)   -178.9961         calculate D2E/DX2 analytically  !
 ! D352  D(101,102,111,117)      0.2783         calculate D2E/DX2 analytically  !
 ! D353  D(87,108,111,102)     -27.7702         calculate D2E/DX2 analytically  !
 ! D354  D(87,108,111,117)     152.9825         calculate D2E/DX2 analytically  !
 ! D355  D(115,108,111,102)     86.761          calculate D2E/DX2 analytically  !
 ! D356  D(115,108,111,117)    -92.4864         calculate D2E/DX2 analytically  !
 ! D357  D(116,108,111,102)   -155.3965         calculate D2E/DX2 analytically  !
 ! D358  D(116,108,111,117)     25.3562         calculate D2E/DX2 analytically  !
 ! D359  D(102,111,117,118)     -0.7083         calculate D2E/DX2 analytically  !
 ! D360  D(102,111,117,119)    179.4589         calculate D2E/DX2 analytically  !
 ! D361  D(108,111,117,118)    178.5073         calculate D2E/DX2 analytically  !
 ! D362  D(108,111,117,119)     -1.3255         calculate D2E/DX2 analytically  !
 ! D363  D(101,112,118,117)      0.5599         calculate D2E/DX2 analytically  !
 ! D364  D(101,112,118,120)   -179.5938         calculate D2E/DX2 analytically  !
 ! D365  D(114,112,118,117)   -179.9184         calculate D2E/DX2 analytically  !
 ! D366  D(114,112,118,120)     -0.0721         calculate D2E/DX2 analytically  !
 ! D367  D(111,117,118,112)      0.2762         calculate D2E/DX2 analytically  !
 ! D368  D(111,117,118,120)   -179.5703         calculate D2E/DX2 analytically  !
 ! D369  D(119,117,118,112)   -179.8936         calculate D2E/DX2 analytically  !
 ! D370  D(119,117,118,120)      0.26           calculate D2E/DX2 analytically  !
 ! D371  D(9,121,128,8)        108.3222         calculate D2E/DX2 analytically  !
 ! D372  D(68,121,128,8)      -152.7063         calculate D2E/DX2 analytically  !
 --------------------------------------------------------------------------------
 Trust Radius=3.00D-01 FncErr=1.00D-07 GrdErr=1.00D-07 EigMax=2.50D+02 EigMin=1.00D-04
 Number of steps in this run=      2 maximum allowed number of steps=      2.
 GradGradGradGradGradGradGradGradGradGradGradGradGradGradGradGradGradGrad

 Stoichiometry    C40H74N4O6P2Ru2(3)
 Framework group  C1[X(C40H74N4O6P2Ru2)]
 Deg. of freedom   378
 Full point group                 C1      NOp   1
 Largest Abelian subgroup         C1      NOp   1
 Largest concise Abelian subgroup C1      NOp   1
                         Standard orientation:                         
 ---------------------------------------------------------------------
 Center     Atomic      Atomic             Coordinates (Angstroms)
 Number     Number       Type             X           Y           Z
 ---------------------------------------------------------------------
      1          1           0        0.318629   -4.295646   -0.543675
      2          6           0       -0.747820   -4.056201   -0.660069
      3          1           0       -1.256655   -4.958125   -1.034758
      4          1           0       -0.834244   -3.259024   -1.413830
      5          1           0       -0.898634    2.854726    0.604796
      6          8           0       -0.810905   -0.465198   -1.742470
      7          1           0       -1.038049    3.356020   -1.860629
      8          8           0       -1.244852   -0.420662    1.013479
      9          1           0       -0.197308   -0.010362   -1.120691
     10          6           0       -1.293049   -3.578155    0.668985
     11          1           0       -1.522752    4.120178    1.696530
     12          1           0       -1.264909   -4.400870    1.414793
     13          6           0       -1.716738    3.578785    0.754412
     14          1           0       -1.156040    1.734556   -2.602683
     15          1           0       -1.688684    4.320262   -0.057724
     16          1           0       -0.658520   -2.764395    1.049535
     17          6           0       -1.586513    2.748497   -2.594065
     18          1           0       -1.437883    3.209069   -3.585703
     19          1           0       -2.249120   -1.890793    2.237443
     20         44           0       -2.423612   -0.744114   -0.659792
     21          1           0       -2.346004    1.114246    1.953356
     22          7           0       -2.643890   -3.019255    0.569418
     23          6           0       -3.080839   -2.504175    1.851215
     24          6           0       -3.072952    2.876405    0.857815
     25          1           0       -2.705491    2.566653    2.959079
     26          1           0       -3.189953    4.762397   -1.589967
     27          6           0       -3.036074    1.964444    2.094615
     28          6           0       -3.088357    2.684720   -2.286095
     29         15           0       -3.248313    1.722850   -0.654505
     30          1           0       -3.317032   -3.296034    2.589221
     31          6           0       -3.702082    4.081833   -2.283926
     32          1           0       -3.314527   -4.050858   -1.106160
     33          1           0       -2.957813   -5.856586    0.634870
     34          1           0       -3.612354    4.517044   -3.294436
     35          6           0       -3.629653   -3.895926   -0.064664
     36          1           0       -4.025180    4.455540    1.971487
     37          6           0       -3.364562   -1.341200   -2.125814
     38          6           0       -4.196496    3.896285    1.034963
     39          1           0       -3.373464    0.823304   -3.404628
     40          6           0       -3.750142    1.854771   -3.388793
     41          1           0       -4.251574    4.628112    0.219444
     42          1           0       -3.510936    2.312809   -4.362971
     43          6           0       -4.257807   -1.586999    1.699251
     44          7           0       -4.217364   -0.729026    0.665000
     45          6           0       -3.868783   -5.239424    0.612862
     46          1           0       -4.032735    1.568622    2.340577
     47          1           0       -4.575004   -3.333171   -0.122468
     48          1           0       -4.772516    4.064063   -2.026863
     49          1           0       -4.225926   -5.128222    1.648534
     50          6           0       -5.035214    1.187020   -0.585440
     51          1           0       -4.636879   -5.801154    0.059865
     52          1           0       -5.179723    3.410232    1.131399
     53          6           0       -5.195056    0.187677    0.519194
     54          6           0       -5.312785   -1.584488    2.608643
     55          1           0       -4.846809    1.833788   -3.300163
     56          1           0       -5.312137   -2.302252    3.429902
     57          1           0       -5.222784    0.687774   -1.548633
     58          1           0       -5.759609    2.006739   -0.475893
     59          6           0       -6.281100    0.233611    1.392987
     60          6           0       -6.344234   -0.667199    2.449041
     61          1           0       -7.058580    0.983105    1.241088
     62          1           0       -7.185334   -0.648356    3.144686
     63          8           0       -3.952392   -1.781036   -3.031273
     64          6           0        0.466339    0.929436    4.499277
     65          1           0        1.051193   -1.869142   -1.773868
     66          8           0        0.682454    1.251874   -0.045348
     67          1           0        1.175041    0.580343   -3.038986
     68          8           0        1.590544   -1.203805    0.910531
     69          1           0        0.688476    1.875126   -0.777947
     70          6           0        0.801494    0.869993    3.018107
[...]
 71,0.00002164,0.00002308,-0.00002839,-0.00001143,0.00012543,-0.0001664
 9,0.00014032,-0.00001677,0.00000899,-0.00001203,0.00023247,-0.00014898
 ,0.00021502,0.00026165,0.00035279,0.00004326,0.00000224,-0.00000450,-0
 .00000076,-0.00116705,-0.00056915,-0.00000759,0.,0.00000053,0.00000138
 ,-0.00037106,-0.00040216,0.00049660,-0.00000638,-0.00000063,-0.0000051
 9,0.00000018,-0.00000549,0.00000405,-0.00001616,-0.00000103,0.00000026
 ,0.00000163,-0.00000358,-0.00000326,0.,-0.00000403,0.00000130,-0.00041
 147,-0.00006785,0.00018807,-0.00009046,-0.00006801,-0.00005775,0.00006
 521,0.00080754,-0.00039042,-0.00000631,0.00000080,-0.00000410,0.000108
 80,0.00008464,0.00001077,-0.00000644,0.00000775,0.00000401,0.00074556,
 0.00028136,-0.00136087,-0.00003409,0.00000249,0.00000610,0.00013916,-0
 .00026278,0.00010078,-0.00000186,0.00000507,-0.00000222,-0.00001432,0.
 00005767,-0.00000204,0.00004654,-0.00004814,0.00000333,-0.00000350,0.0
 0000736,-0.00000469,-0.00002526,-0.00001380,0.00000803,0.00001620,-0.0
 0000584,0.00000475,-0.00000865,0.00001233,-0.00000980,-0.00000749,-0.0
 0002219,-0.00002316,-0.00001193,0.00006883,-0.00003327,-0.00000721,-0.
 00000067,0.00000382,0.00000159,-0.00000121,-0.00000010,0.00039926,0.00
 002487,0.00024007,0.00028527,0.00017746,-0.00032550,0.00035771,0.00048
 187,0.00086116,-0.00026347,0.00094546,0.00057062,-0.00032854,-0.003544
 94,-0.00246690,0.02466170,0.00302166,0.00612137,0.05986574,0.00781692,
 0.06131976,-0.00004116,0.00001364,0.00002428,-0.00002339,-0.00009826,0
 .00004393,0.00000930,0.00006994,0.00004223,-0.00000546,0.00000343,0.00
 003441,-0.00101724,-0.00060142,0.00066271,-0.00080707,-0.00087717,0.00
 051824,-0.00009323,-0.00007942,0.00005157,-0.10280961,-0.16736418,0.07
 984440,0.00242226,0.00058029,-0.00048857,-0.00032435,-0.00019513,0.000
 16937,0.00021877,-0.00014260,-0.00005687,0.00000523,-0.00003248,0.0000
 6382,-0.00048913,0.00059675,0.00004149,0.00004240,-0.00000755,-0.00016
 276,0.00031358,-0.00012716,-0.00007085,0.00035563,-0.00041410,0.000032
 49,-0.00001688,0.00007158,-0.00003000,0.00004455,-0.00000404,0.0000566
 9,-0.00036648,0.00052548,0.00019521,0.00252494,0.00653620,-0.00410864,
 0.00032336,0.00191813,0.00034613,-0.00014827,-0.00007141,-0.00018785,0
 .00008114,-0.00021597,-0.00010277,-0.00075912,0.00043156,-0.00017846,0
 .00008936,-0.00004141,-0.00002485,-0.00004687,-0.00001521,0.00002128,-
 0.00079051,-0.00013205,0.00032874,-0.00005447,-0.00006299,0.00001124,-
 0.00086827,-0.00001007,-0.00058210,0.00004592,0.00002933,-0.00002508,0
 .00003602,0.00002440,0.00000093,-0.00000093,0.00002481,0.00003663,0.00
 000755,0.00000553,-0.00000524,0.00002341,0.00002352,0.00002444,0.00000
 451,0.00004250,-0.00011747,-0.00006576,0.00004373,0.00000933,-0.001198
 92,-0.00232029,-0.00048774,-0.00000241,-0.00004452,0.00026192,0.000027
 12,0.00003034,0.00002149,0.00007204,0.00000099,-0.00006681,0.00003751,
 -0.00000049,-0.00001182,-0.00001706,0.00000903,0.00003631,-0.00030960,
 -0.00039281,0.00015747,-0.00040648,0.00030002,-0.00018062,0.00001431,-
 0.00000160,0.00002722,0.00031720,-0.00024033,-0.00010245,0.00000724,-0
 .00003446,-0.00000429,-0.00000093,-0.00000690,0.00000110,0.00000775,0.
 00001070,-0.00000130,0.00044468,-0.00016388,0.00003466,0.00000316,-0.0
 0000610,0.00000525,0.00006161,-0.00007788,0.00001159,0.00052471,0.0002
 1941,0.00002356,0.00002732,-0.00000751,-0.00003396,-0.00000577,-0.0000
 0915,0.00001641,0.00000032,0.00001432,0.00001738,0.00003315,-0.0000395
 3,0.00003499,-0.00000158,-0.00017780,0.00011786,-0.00007234,-0.0000235
 5,0.00001476,0.00000075,0.00004181,-0.00000514,-0.00002608,0.00004446,
 0.00001208,-0.00000185,-0.00000217,-0.00000866,0.00037445,0.00097543,-
 0.00117836,-0.00037125,-0.00038593,0.00041878,0.00002158,0.00005752,0.
 00010611,-0.00559854,0.00317241,-0.00155377,0.00003193,0.00001057,-0.0
 0005087,0.00275134,-0.00328698,0.00121615,-0.00112570,-0.00056261,0.00
 032510,0.00124702,0.00062063,-0.00040864,0.00001436,-0.00002268,-0.000
 00524,-0.00006863,0.00001656,0.00000178,-0.00007358,-0.00005085,0.0000
 8458,0.00000251,-0.00002875,-0.00003876,0.00007584,0.00001784,-0.00007
 049,-0.00002965,0.00002627,0.00003058,-0.00014515,-0.00006402,-0.00031
 604,0.00301237,0.00357172,-0.00036188,-0.00039751,0.00029083,0.0002282
 7,-0.00021901,-0.00019695,0.00023115,-0.00004907,-0.00002922,0.0000586
 7,0.00007489,0.00002639,-0.00002990,0.00001964,-0.00004912,-0.00004534
 ,0.00000965,0.00000051,0.00001297,0.00011471,-0.00013218,-0.00005366,0
 .00004884,-0.00002396,0.00006559,0.00026057,0.00009961,-0.00020583,-0.
 00001479,-0.00002674,0.00005137,-0.00003459,0.00002251,-0.00002595,-0.
 00005317,-0.00004309,0.00005673,-0.00000119,-0.00005564,0.00001143,-0.
 00000885,-0.00001474,-0.00000358,0.00019971,-0.00007499,-0.00005455,-0
 .00000786,0.00000582,0.00001058,0.00002767,-0.00013497,0.00028201,-0.0
 0004271,-0.00002979,-0.00000829,0.00001345,0.00000266,0.00001470,-0.00
 003878,-0.00000198,-0.00000932,0.00000267,-0.00002080,-0.00002327,-0.0
 0000725,-0.00002029,-0.00000449,-0.00031227,0.00037658,-0.00009084,-0.
 00060048,-0.00027883,-0.00030077,0.00001151,0.00000992,0.00006111,0.00
 003402,-0.00005382,-0.00000467,-0.00003793,0.00001024,0.00001787,-0.00
 000657,0.00001745,0.00000930,0.00002540,0.00001819,0.00001512,-0.00004
 311,-0.00001645,0.00002105,-0.00002746,-0.00001550,-0.00001325,0.00001
 241,-0.00000860,0.00000413,-0.00006283,0.00002402,-0.00008815,0.000073
 62,-0.00015279,-0.00003718,-0.00000220,0.00001118,-0.00000471,-0.00002
 816,0.00000512,-0.00002068,0.00001564,-0.00000056,0.00002512,0.0000035
 5,0.00002250,-0.00001256,-0.00000163,-0.00000076,-0.00001909,-0.000046
 74,0.00007073,0.00000494,-0.00001125,0.00000747,-0.00001117,0.00000482
 ,-0.00000511,0.00000109,-0.00901782,0.00382315,0.00095428,-0.00036506,
 -0.00032217,0.00023999,0.00003077,0.00002891,-0.00001645,0.00001525,0.
 00016133,0.00025254,0.00001040,-0.00000591,-0.00002534,-0.00120451,-0.
 00069229,-0.00187108,0.00011039,0.00002417,0.00036944,0.11404871,0.000
 13797,-0.00002025,0.00000049,-0.00002078,0.00007944,-0.00000816,-0.000
 00733,-0.00007730,-0.00008970,-0.00007735,0.00010170,-0.00005245,-0.00
 088622,0.00090167,0.00033431,0.00005899,-0.00403911,0.00329820,-0.0002
 4271,0.00000837,0.00019570,-0.16313262,-0.30631997,0.14786504,0.000632
 81,-0.00080452,-0.00793325,0.00018098,0.00041136,-0.00031001,0.0000772
 6,-0.00005112,0.00002938,0.00014814,0.00009991,-0.00013151,0.00005197,
 -0.00014412,-0.00012325,0.00005903,0.00010001,-0.00029396,-0.00011983,
 -0.00009150,0.00002672,-0.00090650,0.00013487,0.00015457,-0.00002504,0
 .00000134,-0.00012202,0.00003508,-0.00012252,0.00005844,-0.00014496,-0
 .00112997,0.00041029,0.00196666,0.00239347,0.00537380,0.00199078,-0.00
 286888,-0.00091976,0.00070806,0.00036710,-0.00030711,-0.00040307,-0.00
 006525,-0.00060455,0.00037046,0.00038390,-0.00009332,-0.00032844,0.000
 10577,0.00019099,-0.00002354,0.00004233,0.00003794,0.00016836,0.000704
 99,-0.00027477,-0.00028966,0.00056157,0.00004477,0.00049385,0.00032546
 ,0.00023106,0.00005155,0.00005596,0.00012152,-0.00001841,-0.00028513,-
 0.00011479,-0.00006105,-0.00000899,-0.00000172,0.00002231,-0.00000542,
 0.00001863,-0.00014371,-0.00004925,-0.00002594,0.00006535,-0.00006439,
 0.00027196,0.00000731,0.00005620,0.00004510,-0.00073220,0.00024092,0.0
 0131051,-0.00021810,-0.00037254,0.00006393,0.00005130,0.00016498,0.000
 02152,0.00000393,-0.00026056,-0.00001165,-0.00018574,0.00000868,-0.000
 02369,-0.00010619,-0.00005384,-0.00006128,-0.00003339,0.00009982,-0.00
 009318,-0.00020966,0.00006129,0.00023090,0.00000909,0.00005716,-0.0001
 0531,-0.00054753,0.00019866,0.00008863,-0.00000482,-0.00002732,-0.0000
 0959,0.00007697,-0.00002868,0.00002090,0.00000781,0.00000520,0.0000148
 9,-0.00022417,-0.00013211,-0.00002478,0.00002102,0.00004256,-0.0000394
 3,0.00009047,-0.00007937,0.00002117,0.00025972,-0.00000885,0.00014358,
 -0.00007269,0.00005956,-0.00003181,0.00003666,-0.00002932,0.00006867,0
 .00001877,0.00001179,0.00001377,0.00009894,-0.00002672,0.00001934,-0.0
 0001727,0.00008584,0.00003276,-0.00003344,-0.00000841,-0.00004557,0.00
 005151,0.00002415,0.00001159,-0.00001849,-0.00000148,-0.00000020,-0.00
 000719,0.00000940,0.00000839,0.00018470,0.00007488,-0.00296912,-0.0001
 2603,-0.00020017,0.00009806,-0.00005483,0.00012903,-0.00022008,0.00137
 804,-0.00035242,0.00283359,-0.00000118,0.00010487,-0.00016114,-0.00053
 494,-0.00237806,0.00068701,-0.00157233,0.00386099,-0.00240059,0.000278
 83,0.00057143,0.00010704,-0.00008088,0.00000489,0.00009630,-0.00003851
 ,-0.00001826,0.00007004,-0.00034529,-0.00023649,0.00020369,0.00001022,
 0.00002125,-0.00000382,0.00029398,0.00013169,-0.00028216,-0.00003592,0
 .00020477,0.00017968,0.00003174,0.00008822,0.00008806,0.00541763,0.000
 74510,0.00279050,0.00017612,-0.00005974,-0.00012534,0.00020121,-0.0009
 8585,0.00008347,0.00010427,-0.00009645,0.00005792,0.00009949,0.0002112
 4,-0.00010198,-0.00009901,0.00000873,0.00008460,-0.00001427,-0.0000143
 7,0.00002497,-0.00003205,0.00005301,0.00007188,-0.00009054,0.00004465,
 0.00026436,0.00071331,-0.00089959,-0.00114400,-0.00006035,-0.00000063,
 -0.00013977,0.00003896,0.00009592,-0.00009449,-0.00000094,-0.00007883,
 0.00014008,-0.00014076,-0.00002092,0.00013328,0.00002266,0.00003310,0.
 00004334,0.00005418,-0.00026956,0.00016813,-0.00007410,0.00002949,0.00
 005391,-0.00118996,-0.00136891,0.00140847,-0.00007942,-0.00013361,0.00
 010950,-0.00002582,-0.00006835,-0.00000053,-0.00001061,-0.00002090,0.0
 0001382,0.00002624,0.00002392,0.00000102,0.00003548,0.00001432,0.00003
 168,-0.00051414,0.00047992,-0.00011202,-0.00061820,-0.00049697,-0.0002
 1834,0.00007538,0.00017129,0.00011075,0.00004154,-0.00002170,0.0000068
 3,-0.00005947,-0.00001354,-0.00015543,-0.00003757,0.00003079,0.0000263
 7,0.00002627,-0.00008737,-0.00008840,-0.00015742,0.00016910,0.00016695
 ,-0.00000385,-0.00003289,-0.00005784,0.00004231,-0.00003414,-0.0000136
 0,-0.00026953,0.00003975,-0.00025959,0.00016029,-0.00021047,-0.0000470
 3,-0.00002662,0.00002096,-0.00000413,-0.00005369,-0.00000230,-0.000057
 64,0.00004844,-0.00007218,0.00005268,-0.00008295,0.00009715,-0.0000724
 4,0.00007545,0.00003380,0.00002359,-0.00022367,0.00011144,-0.00008629,
 -0.00003621,0.00003177,-0.00001018,-0.00001138,-0.00000053,-0.00000241
 ,0.00267541,0.00251951,-0.00056264,0.00073691,0.00071517,-0.00061927,0
 .00002791,-0.00023240,-0.00013696,-0.00001727,0.00005051,0.00012190,0.
 00003261,-0.00000164,-0.00001855,-0.00102565,0.00083354,-0.00054741,0.
 00031423,0.00067152,0.00015788,0.15571054,0.30525294,-0.00004984,0.000
 01185,-0.00000186,-0.00001485,0.00001037,0.00004332,-0.00002675,-0.000
 00109,0.00002726,0.00004323,-0.00002777,-0.00003210,0.00066597,0.00013
 213,0.00020235,0.00076868,0.00070396,0.00173703,0.00006392,0.00002063,
 -0.00005926,0.07293095,0.14163805,-0.09307924,-0.00005740,-0.00574029,
 -0.00159013,0.00004661,0.00000435,0.00008352,0.00005674,0.00002291,-0.
 00009570,-0.00007498,-0.00003347,-0.00001045,0.00010195,-0.00036015,-0
 .00017479,-0.00014553,-0.00014771,-0.00004801,-0.00018771,0.00009716,-
 0.00000583,0.00027177,-0.00002871,-0.00019387,-0.00000886,0.00004123,0
 .00013488,0.00004483,0.00003549,-0.00002368,0.00112243,0.00150873,-0.0
 0047004,0.00368665,0.01666000,-0.01377896,0.00003178,-0.00111261,0.000
 77612,-0.00001903,0.00013449,-0.00047972,-0.00056980,-0.00138035,0.000
 63601,0.00006777,-0.00001883,0.00030783,0.00015342,-0.00011704,-0.0001
 5916,0.00002616,0.00000992,-0.00002969,0.00057687,0.00013515,-0.000385
 08,0.00023984,-0.00018568,-0.00023593,-0.00112749,0.00008227,0.0005424
 8,-0.00008393,-0.00023723,0.00029534,0.00001559,0.00011782,0.00014178,
 0.00002840,-0.00000409,0.00004165,-0.00002144,0.00000508,-0.00000368,0
 .00008935,0.00002894,-0.00001355,0.00013763,0.00018486,-0.00000933,0.0
 0008277,-0.00005813,-0.00006651,-0.00399206,-0.00385451,-0.00208433,-0
 .00004892,0.00003504,-0.00023103,-0.00001994,0.00000866,-0.00000156,-0
 .00001990,-0.00003143,-0.00007289,-0.00001655,0.00000537,0.00002226,-0
 .00000694,0.00002871,0.00001647,-0.00039333,0.00025658,-0.00010621,0.0
 0034943,-0.00064558,-0.00006086,-0.00001086,-0.00001074,-0.00004446,-0
 .00025167,0.00014795,-0.00000391,-0.00002278,0.00003575,-0.00002034,-0
 .00001425,-0.00000343,-0.00000553,0.00000478,0.00001670,-0.00001127,0.
 00044975,0.00003892,-0.00012634,0.00000764,0.00000997,0.00001977,-0.00
 005040,0.00006888,0.00000461,-0.00027952,-0.00012075,-0.00013067,0.000
 15516,-0.00012937,-0.00010435,-0.00001135,0.00000694,-0.00001998,-0.00
 002353,-0.00000615,0.00000678,0.00000512,0.00003683,-0.00003734,0.0000
 5401,-0.00016493,0.00010134,0.00015631,0.00006209,-0.00002787,-0.00011
 452,-0.00003779,-0.00005410,0.00003186,-0.00002420,0.00003032,0.000011
 50,-0.00002135,0.00000581,0.00153072,0.00141494,0.00088295,0.00038325,
 -0.00061343,0.00031120,0.00012965,-0.00013648,0.00001743,-0.00229335,0
 .00167096,-0.00426464,0.00001891,-0.00008652,0.00007925,-0.00030330,0.
 00075091,-0.00177247,0.00134404,-0.00194725,-0.00022000,-0.00098279,0.
 00067969,-0.00159587,0.00000921,0.00002063,-0.00003387,0.00002850,-0.0
 0001189,-0.00003590,0.00010968,0.00003685,-0.00009213,-0.00000382,-0.0
 0001515,-0.00000562,-0.00012050,-0.00006982,0.00010120,0.00000659,-0.0
 0005210,-0.00006638,-0.00006720,0.00002982,0.00012117,-0.00093691,0.00
 070474,-0.00054778,-0.00003704,-0.00000038,0.00002998,0.00026875,-0.00
 007427,0.00023454,-0.00031114,-0.00029758,0.00007833,-0.00004319,-0.00
 015578,0.00007435,0.00004435,-0.00000220,-0.00003176,0.00000985,0.0000
 0006,-0.00002069,0.00001449,-0.00000824,-0.00002228,0.00010935,-0.0000
 4035,-0.00012793,-0.00020482,0.00021553,0.00044008,0.00006506,0.000026
 72,0.00000594,-0.00005101,-0.00004117,0.00003430,-0.00002803,-0.000101
 24,0.00011290,0.00004624,0.00011042,-0.00000952,-0.00000452,-0.0000189
 0,-0.00002669,0.00023557,-0.00006987,-0.00022675,0.00003744,-0.0000230
 6,-0.00002534,0.00010016,0.00031539,-0.00018607,0.00004414,0.00008247,
 -0.00008636,0.00001562,0.00002278,0.00000624,-0.00001842,0.00001447,-0
 .00000969,-0.00000728,-0.00001256,0.00000044,-0.00001426,-0.00001014,-
 0.00000878,0.00007826,0.00015802,0.00007856,0.00003222,0.00001842,0.00
 021277,-0.00006487,-0.00002327,0.00002510,-0.00002887,0.00002036,-0.00
 001712,-0.00000690,0.00003858,0.00004756,0.00000695,-0.00000082,-0.000
 00706,0.00005073,-0.00003189,-0.00006128,0.00005268,-0.00009291,-0.000
 09731,0.00001675,-0.00005665,0.00006843,-0.00002970,0.00003465,0.00000
 211,0.00007443,0.00005112,0.00007483,0.00008398,-0.00011172,-0.0000350
 0,0.00000375,0.00000772,-0.00000593,-0.00001271,0.00000417,0.00000461,
 -0.00001878,0.00002521,-0.00002779,0.00002750,-0.00004090,0.00002919,-
 0.00002314,-0.00004429,-0.00006495,0.00002056,0.00004491,0.00004900,0.
 00000442,-0.00001442,0.00000260,0.00000917,-0.00001496,0.00000393,0.00
 166044,-0.00100441,0.00284621,-0.00006144,-0.00014889,0.00002833,-0.00
 006399,-0.00003705,-0.00005812,-0.00001648,0.00017735,0.00026902,0.000
 13977,0.00020673,0.00025131,-0.00235275,-0.00074065,-0.00093844,0.0010
 0696,0.00015203,-0.00167755,-0.07452766,-0.14872489,0.11479595\\-0.000
 01341,-0.00001021,-0.00000355,0.00001300,-0.00002209,0.00000624,-0.000
 00756,0.00000829,0.00000147,-0.00002811,-0.00001028,0.00000926,0.00000
 017,-0.00000986,0.00000591,-0.00001012,0.00005950,0.00014841,0.0000188
 8,-0.00000401,-0.00001679,-0.00009913,0.00010518,-0.00017489,0.0000360
 5,-0.00017050,-0.00019855,0.00001442,-0.00002867,0.00000431,0.00000413
 ,-0.00000555,0.00000039,-0.00001333,0.00000722,0.00000519,-0.00000496,
 0.00001363,-0.00000818,-0.00002857,0.00001527,0.00003762,-0.00001730,-
 0.00001159,0.00002120,0.00001621,0.00000787,0.00000934,-0.00000994,0.0
 0000968,-0.00002048,-0.00000185,0.00000412,0.00000029,-0.00001906,-0.0
 0001826,0.00000037,0.00011787,0.00007637,0.00008556,0.00003818,0.00001
 900,0.00000241,-0.00005980,-0.00005646,-0.00002437,0.00002781,0.000064
 21,0.00004055,0.00003929,0.00000101,-0.00000242,-0.00000791,0.00000532
 ,-0.00000894,0.00002871,0.00001059,-0.00001242,0.00001223,-0.00001113,
 0.00000100,0.00004647,0.00002346,-0.00002076,-0.00007296,-0.00002168,0
 .00001346,-0.00001144,-0.00001578,-0.00001375,-0.00002572,-0.00001258,
 0.00002215,0.00000611,-0.00000498,-0.00000226,-0.00000199,0.00000632,-
 0.00000526,0.00000092,0.00000050,0.00000147,0.00002225,0.00002748,-0.0
 0001970,0.00000929,0.00000002,-0.00000084,-0.00004117,0.00002995,0.000
 01461,-0.00000857,0.00001459,0.00000951,0.00003420,0.00001805,-0.00000
 300,0.00000009,-0.00001770,0.00001618,-0.00002043,0.00001149,0.0000071
 7,-0.00000491,0.00000105,0.00000068,0.00004714,0.00003131,0.00000706,-
 0.00000408,-0.00008937,-0.00001380,-0.00000210,-0.00000835,0.00000470,
 -0.00000202,0.00000915,0.00000027,-0.00000474,0.00001020,-0.00000823,-
 0.00002184,-0.00001425,0.00000344,-0.00000011,-0.00000257,0.00000244,0
 .00000517,-0.00003641,0.00002508,-0.00000214,0.00000005,-0.00000120,-0
 .00000012,0.00000063,-0.00001192,0.00001296,-0.00000233,0.00000545,0.0
 0001226,-0.00001308,-0.00000819,-0.00000055,-0.00000887,0.00000337,0.0
 0000053,0.00000086,0.00000102,-0.00000265,0.00000597,-0.00000020,-0.00
 000569,0.00001274,-0.00000160,-0.00002402,-0.00002892,-0.00000283,-0.0
 0000422,0.00001709,0.00000439,0.00000243,-0.00000233,-0.00000209,0.000
 00362,0.00000080,0.00000030,-0.00001460,-0.00001097,-0.00004951,-0.000
 00050,-0.00000022,0.00000108,-0.00001364,0.00003084,0.00001263,-0.0000
 5831,0.00000759,0.00000500,0.00001681,-0.00000758,0.00000425,-0.000185
 27,-0.00003152,0.00005444,0.00000979,0.00006754,0.00001543,0.00000885,
 -0.00002312,-0.00001043,-0.00001006,0.00001329,-0.00001867,0.00002264,
 -0.00000175,0.00003792,-0.00001232,0.00000412,-0.00001184,0.00001257,-
 0.00000031,-0.00001737,-0.00005427,0.00000338,-0.00004163,0.00000942,0
 .00000699,0.00001453,-0.00000207,-0.00000272,0.00000462,0.00007104,0.0
 0004522,0.00014217,-0.00001682,0.00002295,0.00003362,0.00000513,0.0000
 3823,-0.00003433,-0.00004966,0.00000331,-0.00004523,0.00005364,-0.0000
 1109,-0.00005709,0.00001449,0.00000653,-0.00001322,-0.00001248,-0.0000
 0547,0.00001613,-0.00002377,-0.00001095,0.00001205,0.00002261,0.000002
 69,0.00005442,0.00005786,0.00002943,-0.00009385,0.00000038,0.00000643,
 -0.00000383,-0.00001175,-0.00000683,-0.00002132,-0.00000297,-0.0000022
 3,0.00000542,0.00000209,-0.00001693,-0.00000296,0.00000182,-0.00000134
 ,0.00000280,-0.00000656,-0.00001266,0.00001088,-0.00000048,-0.00000170
 ,0.00000290,0.00003527,0.00003489,0.00001137,0.00001641,-0.00001102,0.
 00001297,0.00001871,0.00002555,-0.00000632,0.00001347,-0.00002258,0.00
 001318,-0.00001575,-0.00000608,0.00000817,0.00000672,0.00000737,-0.000
 00151,-0.00000063,-0.00003744,-0.00002335,-0.00001372,0.00001309,-0.00
 000484,0.00001019,0.00002983,-0.00001431,-0.00000383,0.00000874,-0.000
 00714,0.00000034,0.00000444,-0.00000417,-0.00000304,-0.00000455,0.0000
 0241,-0.00000857,-0.00000632,0.00001142,-0.00002885,-0.00000361,0.0000
 2558,-0.00000659,-0.00000811,0.00000725,-0.00000425,0.00000386,0.00000
 351,0.00003641,-0.00002381,0.00001531,0.00000807,0.00000494,0.00000005
 ,-0.00000287,-0.00000221,0.00001047,-0.00000162,0.00000288,-0.00000313
 ,0.00000030,-0.00000409,-0.00002442,0.00000668,-0.00000147,0.00000420,
 -0.00001427,0.00000841,-0.00002443,0.00001522,0.00000963,0.00001136,-0
 .00000166,-0.00000117,-0.00000158,-0.00000083,-0.00000019,0.00000133,0
 .00018560,-0.00003120,-0.00011370,-0.00004775,-0.00004680,0.00000012,-
 0.00000059,0.00000016,-0.00000553,0.00000814,-0.00000738,-0.00000730,0
 .00000311,0.00000965,0.00001058,-0.00001287,0.00000947,0.00000218,0.00
 001053,0.00002578,0.00002940,-0.00002899,-0.00011296,0.00011578\\\@


 YOU CAN LEAD A BOY TO COLLEGE....
 BUT YOU CANNOT MAKE HIM THINK....
           ELBERT HUBBARD
 Job cpu time:      24 days 11 hours 37 minutes 33.8 seconds.
 Elapsed time:       1 days  5 hours 34 minutes 27.6 seconds.
 File lengths (MBytes):  RWF=  33952 Int=      0 D2E=      0 Chk=    195 Scr=      1
 Normal termination of Gaussian 16 at Thu Mar  5 04:39:35 2020.
