 Entering Gaussian System, Link 0=g16
 Initial command:
 /cluster/chemistry/gaussian/g16/l1.exe "/scratch/js1212.579947/scratch/Gau-494.inp" -scrdir="/scratch/js1212.579947/scratch/"
 Entering Link 1 = /cluster/chemistry/gaussian/g16/l1.exe PID=       495.
  
 Copyright (c) 1988,1990,1992,1993,1995,1998,2003,2009,2016,
            Gaussian, Inc.  All Rights Reserved.
  
 This is part of the Gaussian(R) 16 program.  It is based on
 the Gaussian(R) 09 system (copyright 2009, Gaussian, Inc.),
 the Gaussian(R) 03 system (copyright 2003, Gaussian, Inc.),
 the Gaussian(R) 98 system (copyright 1998, Gaussian, Inc.),
 the Gaussian(R) 94 system (copyright 1995, Gaussian, Inc.),
 the Gaussian 92(TM) system (copyright 1992, Gaussian, Inc.),
 the Gaussian 90(TM) system (copyright 1990, Gaussian, Inc.),
 the Gaussian 88(TM) system (copyright 1988, Gaussian, Inc.),
 the Gaussian 86(TM) system (copyright 1986, Carnegie Mellon
 University), and the Gaussian 82(TM) system (copyright 1983,
 Carnegie Mellon University). Gaussian is a federally registered
 trademark of Gaussian, Inc.
  
 This software contains proprietary and confidential information,
 including trade secrets, belonging to Gaussian, Inc.
  
 This software is provided under written license and may be
 used, copied, transmitted, or stored only in accord with that
 written license.
  
 The following legend is applicable only to US Government
 contracts under FAR:
  
                    RESTRICTED RIGHTS LEGEND
  
 Use, reproduction and disclosure by the US Government is
 subject to restrictions as set forth in subparagraphs (a)
 and (c) of the Commercial Computer Software - Restricted
 Rights clause in FAR 52.227-19.
  
 Gaussian, Inc.
 340 Quinnipiac St., Bldg. 40, Wallingford CT 06492
  
  
 ---------------------------------------------------------------
 Warning -- This program may not be used in any manner that
 competes with the business of Gaussian, Inc. or will provide
 assistance to any competitor of Gaussian, Inc.  The licensee
 of this program is prohibited from giving any competitor of
 Gaussian, Inc. access to this program.  By using this program,
 the user acknowledges that Gaussian, Inc. is engaged in the
 business of creating and licensing software in the field of
 computational chemistry and represents and warrants to the
 licensee that it is not a competitor of Gaussian, Inc. and that
 it will not use this program in any manner prohibited above.
 ---------------------------------------------------------------
  

 Cite this work as:
 Gaussian 16, Revision A.03,
 M. J. Frisch, G. W. Trucks, H. B. Schlegel, G. E. Scuseria, 
 M. A. Robb, J. R. Cheeseman, G. Scalmani, V. Barone, 
 G. A. Petersson, H. Nakatsuji, X. Li, M. Caricato, A. V. Marenich, 
 J. Bloino, B. G. Janesko, R. Gomperts, B. Mennucci, H. P. Hratchian, 
 J. V. Ortiz, A. F. Izmaylov, J. L. Sonnenberg, D. Williams-Young, 
 F. Ding, F. Lipparini, F. Egidi, J. Goings, B. Peng, A. Petrone, 
 T. Henderson, D. Ranasinghe, V. G. Zakrzewski, J. Gao, N. Rega, 
 G. Zheng, W. Liang, M. Hada, M. Ehara, K. Toyota, R. Fukuda, 
 J. Hasegawa, M. Ishida, T. Nakajima, Y. Honda, O. Kitao, H. Nakai, 
 T. Vreven, K. Throssell, J. A. Montgomery, Jr., J. E. Peralta, 
 F. Ogliaro, M. J. Bearpark, J. J. Heyd, E. N. Brothers, K. N. Kudin, 
 V. N. Staroverov, T. A. Keith, R. Kobayashi, J. Normand, 
 K. Raghavachari, A. P. Rendell, J. C. Burant, S. S. Iyengar, 
 J. Tomasi, M. Cossi, J. M. Millam, M. Klene, C. Adamo, R. Cammi, 
 J. W. Ochterski, R. L. Martin, K. Morokuma, O. Farkas, 
 J. B. Foresman, and D. J. Fox, Gaussian, Inc., Wallingford CT, 2016.
 
 ******************************************
 Gaussian 16:  ES64L-G16RevA.03 25-Dec-2016
                 5-Mar-2020 
 ******************************************
 %rwf=/scratch/js1212.579947/F-R2-R2-Down-GP-T-SMD.rwf
 %nosave
 %nprocshared=16
 Will use up to   16 processors via shared memory.
 %mem=3000MB
 %chk=/scratch/js1212.579947/F-R2-R2-Down-GPOF-Disp.chk
 ----------------------------------------------------------------------
 # genecp pbe1pbe EmpiricalDispersion=GD3BJ scrf=(SMD,solvent=water) ge
 om=allcheck
 ----------------------------------------------------------------------
 1/29=7,38=1,172=1/1;
 2/12=2,40=1/2;
 3/5=7,11=2,14=-4,16=1,17=8,25=1,30=1,70=32201,72=1,74=-13,124=41/1,2,3;
 4//1;
 5/5=2,38=5,53=1/2;
 6/7=2,8=2,9=2,10=2,28=1/1;
 99/5=1,9=1/99;
 Structure from the checkpoint file:  "/scratch/js1212.579947/F-R2-R2-Down-GPOF-Disp.chk"
 -------------------
 Title Card Required
 -------------------
 Charge =  0 Multiplicity = 3
 Redundant internal coordinates found in file.  (old form).
 H,0,-1.286623106,-8.5268599747,1.4837309067
 C,0,-0.5606537813,-9.2369871861,1.90430456
 H,0,-0.9925761764,-9.6529406024,2.827991931
 H,0,0.3515015619,-8.6761471403,2.1583652327
 H,0,5.0382276404,-8.3183157577,-2.2420323806
 O,0,2.7948543116,-7.7633590025,1.1043913926
 H,0,6.1700526376,-6.9056313847,-0.4892203707
 O,0,2.3149225776,-9.6518413805,-0.8928194776
 H,0,2.7349703961,-7.5184005062,0.1523432763
 C,0,-0.2498434299,-10.2955010926,0.8674195802
 H,0,6.1148542142,-9.104757968,-3.4274262612
 H,0,-1.1546521465,-10.9040462113,0.6555820702
 C,0,5.9909935024,-8.8612050597,-2.3580044187
 H,0,5.0433105192,-6.9895637185,0.8953800143
 H,0,6.818256623,-8.1916456788,-2.0796776215
 H,0,0.0477447426,-9.8066074855,-0.0717684437
 C,0,6.0995023406,-7.0750357988,0.5943611942
 H,0,6.6796995929,-6.2805525596,1.0940913623
 H,0,1.2135828993,-11.5051154734,-0.7501536202
 Ru,0,3.021265178,-9.711958792,1.0543319451
 H,0,3.8799209773,-10.658293945,-1.8876452363
 N,0,0.8739385104,-11.1572600059,1.2436405733
 C,0,1.1784387885,-12.0946900768,0.181690772
 C,0,5.99510239,-10.1618878718,-1.5508146466
 H,0,5.0152066321,-11.1410358279,-3.2022860826
 H,0,8.2858680991,-8.3904313998,-0.4660916719
 C,0,4.8826548514,-11.0640136942,-2.1087889678
 C,0,6.6589614779,-8.4437655047,1.0042773727
 P,0,5.4922544616,-9.7363512185,0.2421199157
 H,0,0.4239304154,-12.898383842,0.0709049093
 C,0,8.1263240308,-8.5721886148,0.6056046236
 H,0,0.745811553,-10.9970038821,3.3123175997
 H,0,-1.4034786859,-12.160152771,2.6439464528
 H,0,8.7171498223,-7.8196720958,1.1562727914
 C,0,0.7513346803,-11.7942299599,2.5557305665
 H,0,7.4835112219,-11.1386169052,-2.7637909871
 C,0,3.3317701289,-9.7721544768,2.8684657467
 C,0,7.3325772917,-10.884972076,-1.6998002122
 H,0,5.504100114,-8.5066556043,2.8642815243
 C,0,6.5484181212,-8.5495597454,2.5272042797
 H,0,8.1909446105,-10.281169629,-1.3799505821
 H,0,7.080076102,-7.6945350883,2.9769965953
 C,0,2.5392855284,-12.6995244275,0.3601000366
 N,0,3.5174654303,-11.8650291672,0.7527939383
 C,0,-0.4537145337,-12.7059076518,2.7504357297
 H,0,4.9434068446,-12.0855151289,-1.7046245349
 H,0,1.6801849517,-12.3605032668,2.7297841172
 H,0,8.5387621699,-9.5619747627,0.8554932497
 H,0,-0.4643364398,-13.5438933802,2.0361517066
 C,0,5.8454623748,-11.3132729864,1.1767116152
 H,0,-0.4310036453,-13.1381083584,3.762366282
 H,0,7.3495945672,-11.8342157796,-1.1421886425
 C,0,4.7842501864,-12.3171208743,0.8441914726
 C,0,2.7917909361,-14.0411287528,0.0838420582
 H,0,7.0141403846,-9.4654436451,2.9212007474
 H,0,1.9689944923,-14.6873172585,-0.2245371385
 H,0,5.7598599313,-11.042073733,2.2403342713
 H,0,6.8464773178,-11.7357094149,1.0087680201
 C,0,5.0971961093,-13.6519446417,0.5884027221
 C,0,4.0875009182,-14.5274434539,0.2079917704
 H,0,6.1313272875,-13.9859144216,0.6796518094
 H,0,4.3107501249,-15.5761648682,0.0028815827
 O,0,3.4663894823,-9.8325877082,4.0247880694
 C,0,1.7606615599,-9.9391538726,-4.9563122753
 H,0,0.7526291144,-6.6406909719,1.0128137436
 O,0,3.1184225695,-7.1164792621,-1.640700319
 H,0,3.1016609549,-5.2065157733,0.8102631461
 O,0,0.3680169568,-7.5676273444,-1.6201383958
 H,0,3.8349112881,-6.539189866,-1.3604113351
 C,0,1.9414080988,-8.8532301186,-3.9085387648
 H,0,-0.5294935157,-6.1226465971,2.1400471797
 C,0,0.2485857118,-5.7660521338,1.4451042423
 H,0,3.9135369964,-4.7125440312,-0.6924445089
 H,0,0.9923553097,-5.218681606,2.0419039982
 C,0,3.4342801691,-4.3374970231,0.222576106
 H,0,4.1990884426,-3.7973994847,0.8049258545
 H,0,-0.413909443,-8.1662360487,-3.519391977
 Ru,0,1.5251543333,-6.0843594742,-2.4594212462
 H,0,-1.0500373314,-6.5814742766,-0.8461049985
 N,0,1.4003301121,-7.5187671289,-4.2498848716
 C,0,-0.0665662234,-7.588827385,-4.3933782329
 C,0,-0.4039998496,-4.8922292862,0.3759892884
 H,0,-2.218164079,-6.0323831174,0.4110370366
 H,0,1.5956425379,-3.2627174995,1.9534913165
 C,0,-1.4890355972,-5.7002421149,-0.3480436253
 C,0,2.2935510413,-3.3756914636,-0.1297463463
 P,0,0.9291937413,-4.4658995039,-0.9125776443
 H,0,-0.3644612615,-8.0826917673,-5.3339855117
 C,0,1.8825072685,-2.6046869613,1.1239958059
 H,0,1.6450740419,-5.930213108,-5.5761064428
 H,0,3.9366934563,-6.6613943245,-4.5566581231
 H,0,2.7519132932,-2.0154041847,1.4606746527
 C,0,1.9971355908,-6.9691506693,-5.4844687875
 H,0,-1.9623002193,-4.0515306919,1.5753490751
 C,0,2.5951910753,-4.8831147657,-3.3327544287
 C,0,-1.0881537104,-3.6795160268,1.0155953498
 H,0,3.0969190276,-2.7834832874,-2.1006121462
 C,0,2.7983987968,-2.3442920269,-1.1417085558
 H,0,-0.4581937197,-3.1360357203,1.7261262318
 H,0,3.690620948,-1.8545345352,-0.7169656925
 C,0,-0.7220180211,-6.2461266166,-4.2828091583
 N,0,-0.1712509195,-5.4102357351,-3.3812848211
 C,0,3.513039855,-7.0150689082,-5.5061166042
 H,0,-2.0428811332,-5.0837692261,-1.0744152337
 H,0,1.5956868022,-7.5153678985,-6.3603606218
 H,0,1.063635084,-1.8978837446,0.9297193288
 H,0,3.8899852997,-8.0319594215,-5.6863540281
 C,0,0.0027353349,-3.3604259811,-2.1151781887
 H,0,3.8881688282,-6.3681910814,-6.3121823352
 H,0,-1.4731491494,-2.9650237164,0.2713821708
 C,0,-0.7188536437,-4.204554065,-3.1210335566
 C,0,-1.8679302362,-5.8824694536,-4.9814830112
 H,0,2.055059503,-1.5537054178,-1.3279162104
 H,0,-2.2943921581,-6.5687554412,-5.7136989913
 H,0,0.7794575152,-2.7850127866,-2.6439643917
 H,0,-0.6758175384,-2.6387859209,-1.6390454137
 C,0,-1.8768505733,-3.8002786322,-3.7808426428
 C,0,-2.4544041098,-4.6468479781,-4.7219139395
 H,0,-2.3140018289,-2.8273452885,-3.5548370587
 H,0,-3.3579595353,-4.3429686737,-5.2533481366
 H,0,0.9702633262,-8.2034797324,-1.1885273186
 O,0,3.2875711148,-4.1593143291,-3.9329704207
 H,0,2.2036977559,-10.8683689193,-4.5673003019
 H,0,2.2593140202,-9.7128121407,-5.911955993
 H,0,0.700788316,-10.1506809399,-5.167083942
 H,0,1.4668784593,-9.1468323205,-2.9645777772
 H,0,3.0022354478,-8.7097938686,-3.671635925
 H,0,2.7407245885,-8.8658876193,-1.2837093662
 Recover connectivity data from disk.
                           ----------------------------
                           !    Current Parameters    !
                           ! (Angstroms and Degrees)  !
 --------------------------                            --------------------------
 ! Name  Definition              Value                                          !
 --------------------------------------------------------------------------------
 ! R1    R(1,2)                  1.0992                                         !
 ! R2    R(2,3)                  1.1013                                         !
 ! R3    R(2,4)                  1.1005                                         !
 ! R4    R(2,10)                 1.514                                          !
 ! R5    R(5,13)                 1.1027                                         !
 ! R6    R(6,9)                  0.9849                                         !
 ! R7    R(6,20)                 1.9623                                         !
 ! R8    R(7,17)                 1.099                                          !
 ! R9    R(8,20)                 2.0722                                         !
 ! R10   R(8,128)                0.9756                                         !
 ! R11   R(9,69)                 2.1112                                         !
 ! R12   R(9,121)                2.3198                                         !
 ! R13   R(10,12)                1.1108                                         !
 ! R14   R(10,16)                1.0998                                         !
 ! R15   R(10,22)                1.4653                                         !
 ! R16   R(11,13)                1.1038                                         !
 ! R17   R(13,15)                1.1001                                         !
 ! R18   R(13,24)                1.5308                                         !
 ! R19   R(14,17)                1.1016                                         !
 ! R20   R(17,18)                1.1034                                         !
 ! R21   R(17,28)                1.5344                                         !
 ! R22   R(19,23)                1.1033                                         !
 ! R23   R(20,29)                2.6012                                         !
 ! R24   R(20,37)                1.8415                                         !
 ! R25   R(20,44)                2.23                                           !
 ! R26   R(21,27)                1.1041                                         !
 ! R27   R(22,23)                1.4489                                         !
 ! R28   R(22,35)                1.4637                                         !
 ! R29   R(23,30)                1.1079                                         !
 ! R30   R(23,43)                1.4999                                         !
 ! R31   R(24,27)                1.5371                                         !
 ! R32   R(24,29)                1.9101                                         !
 ! R33   R(24,38)                1.5277                                         !
 ! R34   R(25,27)                1.1042                                         !
 ! R35   R(26,31)                1.0986                                         !
 ! R36   R(27,46)                1.1002                                         !
 ! R37   R(28,29)                1.9008                                         !
 ! R38   R(28,31)                1.526                                          !
 ! R39   R(28,40)                1.5306                                         !
 ! R40   R(29,50)                1.8668                                         !
 ! R41   R(31,34)                1.1039                                         !
 ! R42   R(31,48)                1.101                                          !
 ! R43   R(32,35)                1.0991                                         !
 ! R44   R(33,45)                1.1006                                         !
 ! R45   R(35,45)                1.5236                                         !
 ! R46   R(35,47)                1.1017                                         !
 ! R47   R(36,38)                1.1042                                         !
 ! R48   R(37,63)                1.1657                                         !
 ! R49   R(38,41)                1.0971                                         !
 ! R50   R(38,52)                1.101                                          !
 ! R51   R(39,40)                1.0982                                         !
 ! R52   R(40,42)                1.1027                                         !
 ! R53   R(40,55)                1.1004                                         !
 ! R54   R(43,44)                1.3444                                         !
 ! R55   R(43,54)                1.3928                                         !
 ! R56   R(44,53)                1.3481                                         !
 ! R57   R(45,49)                1.1012                                         !
 ! R58   R(45,51)                1.1006                                         !
 ! R59   R(50,53)                1.4981                                         !
 ! R60   R(50,57)                1.101                                          !
 ! R61   R(50,58)                1.0994                                         !
 ! R62   R(53,59)                1.3947                                         !
 ! R63   R(54,56)                1.0907                                         !
 ! R64   R(54,60)                1.3895                                         !
 ! R65   R(59,60)                1.3895                                         !
 ! R66   R(59,61)                1.0905                                         !
 ! R67   R(60,62)                1.0917                                         !
 ! R68   R(64,70)                1.5198                                         !
 ! R69   R(64,123)               1.1005                                         !
 ! R70   R(64,124)               1.1014                                         !
 ! R71   R(64,125)               1.1011                                         !
 ! R72   R(65,72)                1.0981                                         !
 ! R73   R(66,69)                0.9619                                         !
 ! R74   R(66,78)                2.0674                                         !
 ! R75   R(67,75)                1.1005                                         !
 ! R76   R(68,78)                2.06                                           !
 ! R77   R(68,121)               0.9764                                         !
 ! R78   R(70,80)                1.4799                                         !
 ! R79   R(70,126)               1.0966                                         !
 ! R80   R(70,127)               1.0964                                         !
 ! R81   R(71,72)                1.1025                                         !
 ! R82   R(72,74)                1.0995                                         !
 ! R83   R(72,82)                1.5272                                         !
 ! R84   R(73,75)                1.0989                                         !
 ! R85   R(75,76)                1.1026                                         !
 ! R86   R(75,86)                1.5331                                         !
 ! R87   R(77,81)                1.1036                                         !
 ! R88   R(78,87)                2.3167                                         !
 ! R89   R(78,95)                1.8305                                         !
 ! R90   R(78,102)               2.045                                          !
 ! R91   R(79,85)                1.1033                                         !
 ! R92   R(80,81)                1.4756                                         !
 ! R93   R(80,93)                1.4773                                         !
 ! R94   R(81,88)                1.1034                                         !
 ! R95   R(81,101)               1.4982                                         !
 ! R96   R(82,85)                1.5344                                         !
 ! R97   R(82,87)                1.9025                                         !
 ! R98   R(82,96)                1.5323                                         !
 ! R99   R(83,85)                1.1037                                         !
 ! R100  R(84,89)                1.097                                          !
 ! R101  R(85,104)               1.102                                          !
 ! R102  R(86,87)                1.9139                                         !
 ! R103  R(86,89)                1.5282                                         !
 ! R104  R(86,98)                1.5306                                         !
 ! R105  R(87,108)               1.8779                                         !
 ! R106  R(89,92)                1.1029                                         !
 ! R107  R(89,106)               1.099                                          !
 ! R108  R(90,93)                1.1008                                         !
 ! R109  R(91,103)               1.0982                                         !
 ! R110  R(93,103)               1.5168                                         !
 ! R111  R(93,105)               1.1076                                         !
 ! R112  R(94,96)                1.1027                                         !
 ! R113  R(95,122)               1.1677                                         !
 ! R114  R(96,99)                1.0941                                         !
 ! R115  R(96,110)               1.1012                                         !
 ! R116  R(97,98)                1.0961                                         !
 ! R117  R(98,100)               1.1029                                         !
 ! R118  R(98,113)               1.101                                          !
 ! R119  R(101,102)              1.3471                                         !
 ! R120  R(101,112)              1.3905                                         !
 ! R121  R(102,111)              1.3495                                         !
 ! R122  R(103,107)              1.0994                                         !
 ! R123  R(103,109)              1.0995                                         !
 ! R124  R(108,111)              1.4983                                         !
 ! R125  R(108,115)              1.1018                                         !
 ! R126  R(108,116)              1.099                                          !
 ! R127  R(111,117)              1.3927                                         !
 ! R128  R(112,114)              1.0904                                         !
 ! R129  R(112,118)              1.3922                                         !
 ! R130  R(117,118)              1.3914                                         !
 ! R131  R(117,119)              1.0903                                         !
 ! R132  R(118,120)              1.0914                                         !
 ! R133  R(121,128)              1.8927                                         !
 ! A1    A(1,2,3)              107.8128                                         !
 ! A2    A(1,2,4)              107.8495                                         !
 ! A3    A(1,2,10)             108.9795                                         !
 ! A4    A(3,2,4)              108.9011                                         !
 ! A5    A(3,2,10)             113.0091                                         !
 ! A6    A(4,2,10)             110.1362                                         !
 ! A7    A(9,6,20)             103.2578                                         !
 ! A8    A(20,8,128)           104.5418                                         !
 ! A9    A(6,9,69)             140.9262                                         !
 ! A10   A(6,9,121)            122.11                                           !
 ! A11   A(69,9,121)            96.8426                                         !
 ! A12   A(2,10,12)            110.2681                                         !
 ! A13   A(2,10,16)            109.244                                          !
 ! A14   A(2,10,22)            113.1279                                         !
 ! A15   A(12,10,16)           107.5219                                         !
 ! A16   A(12,10,22)           110.578                                          !
 ! A17   A(16,10,22)           105.8527                                         !
 ! A18   A(5,13,11)            107.908                                          !
 ! A19   A(5,13,15)            108.8745                                         !
 ! A20   A(5,13,24)            111.4188                                         !
 ! A21   A(11,13,15)           107.1605                                         !
 ! A22   A(11,13,24)           108.8506                                         !
 ! A23   A(15,13,24)           112.4408                                         !
 ! A24   A(7,17,14)            108.6035                                         !
 ! A25   A(7,17,18)            107.5652                                         !
 ! A26   A(7,17,28)            112.1782                                         !
 ! A27   A(14,17,18)           108.9369                                         !
 ! A28   A(14,17,28)           110.2305                                         !
 ! A29   A(18,17,28)           109.2421                                         !
 ! A30   A(6,20,8)              87.4686                                         !
 ! A31   A(6,20,29)             97.2894                                         !
 ! A32   A(6,20,37)             91.5347                                         !
 ! A33   A(8,20,29)             91.7577                                         !
 ! A34   A(8,20,44)             88.6705                                         !
 ! A35   A(29,20,37)            98.4604                                         !
 ! A36   A(29,20,44)            74.7725                                         !
 ! A37   A(37,20,44)            93.6769                                         !
 ! A38   A(10,22,23)           110.7021                                         !
 ! A39   A(10,22,35)           114.9523                                         !
 ! A40   A(23,22,35)           113.1462                                         !
 ! A41   A(19,23,22)           106.2608                                         !
 ! A42   A(19,23,30)           108.959                                          !
 ! A43   A(19,23,43)           106.6826                                         !
 ! A44   A(22,23,30)           113.5476                                         !
 ! A45   A(22,23,43)           111.3715                                         !
 ! A46   A(30,23,43)           109.7102                                         !
 ! A47   A(13,24,27)           107.7773                                         !
 ! A48   A(13,24,29)           107.7553                                         !
 ! A49   A(13,24,38)           110.6764                                         !
 ! A50   A(27,24,29)           106.3173                                         !
 ! A51   A(27,24,38)           108.6883                                         !
 ! A52   A(29,24,38)           115.3064                                         !
 ! A53   A(21,27,24)           111.6489                                         !
 ! A54   A(21,27,25)           109.4519                                         !
 ! A55   A(21,27,46)           108.5269                                         !
 ! A56   A(24,27,25)           108.2731                                         !
 ! A57   A(24,27,46)           111.8138                                         !
 ! A58   A(25,27,46)           107.0015                                         !
 ! A59   A(17,28,29)           106.0029                                         !
 ! A60   A(17,28,31)           110.8473                                         !
 ! A61   A(17,28,40)           107.5256                                         !
 ! A62   A(29,28,31)           115.3565                                         !
 ! A63   A(29,28,40)           107.9166                                         !
 ! A64   A(31,28,40)           108.8797                                         !
 ! A65   A(20,29,24)           123.0426                                         !
 ! A66   A(20,29,28)           116.8407                                         !
 ! A67   A(20,29,50)            91.7956                                         !
 ! A68   A(24,29,28)           111.4868                                         !
 ! A69   A(24,29,50)           103.4107                                         !
 ! A70   A(28,29,50)           104.9255                                         !
 ! A71   A(26,31,28)           112.3689                                         !
 ! A72   A(26,31,34)           107.2236                                         !
 ! A73   A(26,31,48)           108.4044                                         !
 ! A74   A(28,31,34)           109.0847                                         !
 ! A75   A(28,31,48)           112.1216                                         !
 ! A76   A(34,31,48)           107.4044                                         !
 ! A77   A(22,35,32)           107.5682                                         !
 ! A78   A(22,35,45)           116.1821                                         !
 ! A79   A(22,35,47)           107.1389                                         !
 ! A80   A(32,35,45)           110.0044                                         !
 ! A81   A(32,35,47)           105.5639                                         !
 ! A82   A(45,35,47)           109.8216                                         !
 ! A83   A(24,38,36)           108.8066                                         !
 ! A84   A(24,38,41)           113.3307                                         !
 ! A85   A(24,38,52)           111.8515                                         !
 ! A86   A(36,38,41)           107.4818                                         !
 ! A87   A(36,38,52)           106.7295                                         !
 ! A88   A(41,38,52)           108.3451                                         !
 ! A89   A(28,40,39)           111.8004                                         !
 ! A90   A(28,40,42)           108.5075                                         !
 ! A91   A(28,40,55)           112.5322                                         !
 ! A92   A(39,40,42)           107.6367                                         !
 ! A93   A(39,40,55)           108.9697                                         !
 ! A94   A(42,40,55)           107.1723                                         !
 ! A95   A(23,43,44)           116.3973                                         !
 ! A96   A(23,43,54)           121.9599                                         !
 ! A97   A(44,43,54)           121.5954                                         !
 ! A98   A(20,44,43)           118.4835                                         !
 ! A99   A(20,44,53)           121.5804                                         !
 ! A100  A(43,44,53)           119.6917                                         !
 ! A101  A(33,45,35)           111.9299                                         !
 ! A102  A(33,45,49)           107.8355                                         !
 ! A103  A(33,45,51)           107.548                                          !
 ! A104  A(35,45,49)           112.3406                                         !
 ! A105  A(35,45,51)           109.6434                                         !
 ! A106  A(49,45,51)           107.3234                                         !
 ! A107  A(29,50,53)           108.7156                                         !
 ! A108  A(29,50,57)           105.1214                                         !
 ! A109  A(29,50,58)           114.8582                                         !
 ! A110  A(53,50,57)           108.9291                                         !
 ! A111  A(53,50,58)           110.7069                                         !
 ! A112  A(57,50,58)           108.241                                          !
 ! A113  A(44,53,50)           117.126                                          !
 ! A114  A(44,53,59)           121.2897                                         !
 ! A115  A(50,53,59)           121.5382                                         !
 ! A116  A(43,54,56)           119.339                                          !
 ! A117  A(43,54,60)           119.2382                                         !
 ! A118  A(56,54,60)           121.4227                                         !
 ! A119  A(53,59,60)           119.3539                                         !
 ! A120  A(53,59,61)           119.3755                                         !
 ! A121  A(60,59,61)           121.2667                                         !
 ! A122  A(54,60,59)           118.7862                                         !
 ! A123  A(54,60,62)           120.6724                                         !
 ! A124  A(59,60,62)           120.5396                                         !
 ! A125  A(70,64,123)          108.1642                                         !
 ! A126  A(70,64,124)          113.4217                                         !
 ! A127  A(70,64,125)          112.5629                                         !
 ! A128  A(123,64,124)         107.3351                                         !
 ! A129  A(123,64,125)         107.0352                                         !
 ! A130  A(124,64,125)         108.009                                          !
 ! A131  A(69,66,78)           112.9443                                         !
 ! A132  A(78,68,121)          107.6104                                         !
 ! A133  A(9,69,66)             62.7634                                         !
 ! A134  A(64,70,80)           116.2193                                         !
 ! A135  A(64,70,126)          110.5304                                         !
 ! A136  A(64,70,127)          110.948                                          !
 ! A137  A(80,70,126)          106.3662                                         !
 ! A138  A(80,70,127)          106.5967                                         !
 ! A139  A(126,70,127)         105.5294                                         !
 ! A140  A(65,72,71)           108.3278                                         !
 ! A141  A(65,72,74)           107.4384                                         !
 ! A142  A(65,72,82)           112.1025                                         !
 ! A143  A(71,72,74)           107.2341                                         !
 ! A144  A(71,72,82)           108.9506                                         !
 ! A145  A(74,72,82)           112.5922                                         !
 ! A146  A(67,75,73)           107.8758                                         !
 ! A147  A(67,75,76)           108.3239                                         !
 ! A148  A(67,75,86)           113.1544                                         !
 ! A149  A(73,75,76)           107.7245                                         !
 ! A150  A(73,75,86)           110.3194                                         !
 ! A151  A(76,75,86)           109.2794                                         !
 ! A152  A(66,78,68)            84.9562                                         !
 ! A153  A(66,78,87)           106.4154                                         !
 ! A154  A(66,78,95)            93.7877                                         !
 ! A155  A(68,78,87)            94.9617                                         !
 ! A156  A(68,78,102)           87.4236                                         !
 ! A157  A(87,78,95)            90.6005                                         !
 ! A158  A(87,78,102)           81.7962                                         !
 ! A159  A(95,78,102)           93.0678                                         !
 ! A160  A(70,80,81)           110.0652                                         !
 ! A161  A(70,80,93)           112.3667                                         !
 ! A162  A(81,80,93)           109.7553                                         !
 ! A163  A(77,81,80)           105.1128                                         !
 ! A164  A(77,81,88)           110.8529                                         !
 ! A165  A(77,81,101)          105.8285                                         !
 ! A166  A(80,81,88)           111.8736                                         !
 ! A167  A(80,81,101)          112.6553                                         !
 ! A168  A(88,81,101)          110.239                                          !
 ! A169  A(72,82,85)           109.3406                                         !
 ! A170  A(72,82,87)           107.6327                                         !
 ! A171  A(72,82,96)           110.5738                                         !
 ! A172  A(85,82,87)           107.0939                                         !
 ! A173  A(85,82,96)           107.338                                          !
 ! A174  A(87,82,96)           114.7242                                         !
 ! A175  A(79,85,82)           110.6243                                         !
 ! A176  A(79,85,83)           109.4485                                         !
 ! A177  A(79,85,104)          110.44                                           !
 ! A178  A(82,85,83)           107.5232                                         !
 ! A179  A(82,85,104)          111.8288                                         !
 ! A180  A(83,85,104)          106.8376                                         !
 ! A181  A(75,86,87)           105.4894                                         !
 ! A182  A(75,86,89)           109.1544                                         !
 ! A183  A(75,86,98)           109.2241                                         !
 ! A184  A(87,86,89)           115.5457                                         !
 ! A185  A(87,86,98)           110.399                                          !
 ! A186  A(89,86,98)           106.9279                                         !
 ! A187  A(78,87,82)           118.4201                                         !
 ! A188  A(78,87,86)           119.1873                                         !
 ! A189  A(78,87,108)           96.3482                                         !
 ! A190  A(82,87,86)           110.4976                                         !
 ! A191  A(82,87,108)          102.7051                                         !
 ! A192  A(86,87,108)          106.1591                                         !
 ! A193  A(84,89,86)           112.8344                                         !
 ! A194  A(84,89,92)           107.2058                                         !
 ! A195  A(84,89,106)          108.9415                                         !
 ! A196  A(86,89,92)           107.9373                                         !
 ! A197  A(86,89,106)          112.3249                                         !
 ! A198  A(92,89,106)          107.3182                                         !
 ! A199  A(80,93,90)           106.9478                                         !
 ! A200  A(80,93,103)          113.8547                                         !
 ! A201  A(80,93,105)          109.3286                                         !
 ! A202  A(90,93,103)          110.3059                                         !
 ! A203  A(90,93,105)          106.4812                                         !
 ! A204  A(103,93,105)         109.6358                                         !
 ! A205  A(82,96,94)           107.3885                                         !
 ! A206  A(82,96,99)           114.0253                                         !
 ! A207  A(82,96,110)          112.8007                                         !
 ! A208  A(94,96,99)           107.1199                                         !
 ! A209  A(94,96,110)          106.5483                                         !
 ! A210  A(99,96,110)          108.536                                          !
 ! A211  A(86,98,97)           113.4667                                         !
 ! A212  A(86,98,100)          108.1468                                         !
 ! A213  A(86,98,113)          111.9002                                         !
 ! A214  A(97,98,100)          107.1285                                         !
 ! A215  A(97,98,113)          108.882                                          !
 ! A216  A(100,98,113)         107.0047                                         !
 ! A217  A(81,101,102)         115.2523                                         !
 ! A218  A(81,101,112)         123.9058                                         !
 ! A219  A(102,101,112)        120.7238                                         !
 ! A220  A(78,102,101)         115.8666                                         !
 ! A221  A(78,102,111)         122.968                                          !
 ! A222  A(101,102,111)        121.165                                          !
 ! A223  A(91,103,93)          111.3132                                         !
 ! A224  A(91,103,107)         107.8999                                         !
 ! A225  A(91,103,109)         108.224                                          !
 ! A226  A(93,103,107)         111.902                                          !
 ! A227  A(93,103,109)         109.4899                                         !
 ! A228  A(107,103,109)        107.8797                                         !
 ! A229  A(87,108,111)         109.6242                                         !
 ! A230  A(87,108,115)         105.4846                                         !
 ! A231  A(87,108,116)         114.4362                                         !
 ! A232  A(111,108,115)        108.1519                                         !
 ! A233  A(111,108,116)        111.3099                                         !
 ! A234  A(115,108,116)        107.4721                                         !
 ! A235  A(102,111,108)        115.936                                          !
 ! A236  A(102,111,117)        120.3543                                         !
 ! A237  A(108,111,117)        123.7055                                         !
 ! A238  A(101,112,114)        119.6769                                         !
 ! A239  A(101,112,118)        119.0522                                         !
 ! A240  A(114,112,118)        121.2691                                         !
 ! A241  A(111,117,118)        119.2715                                         !
 ! A242  A(111,117,119)        119.616                                          !
 ! A243  A(118,117,119)        121.1123                                         !
 ! A244  A(112,118,117)        119.4246                                         !
 ! A245  A(112,118,120)        120.3377                                         !
 ! A246  A(117,118,120)        120.2375                                         !
 ! A247  A(9,121,68)           122.1689                                         !
 ! A248  A(9,121,128)           54.6087                                         !
 ! A249  A(68,121,128)         141.5056                                         !
 ! A250  A(8,128,121)           81.5781                                         !
 ! A251  L(6,20,44,8,-1)       176.1391                                         !
 ! A252  L(8,20,37,6,-1)       179.0034                                         !
 ! A253  L(20,37,63,1,-1)      177.3145                                         !
 ! A254  L(66,78,102,68,-1)    172.3798                                         !
 ! A255  L(68,78,95,66,-1)     178.7438                                         !
 ! A256  L(78,95,122,7,-1)     180.0161                                         !
 ! A257  L(6,20,44,8,-2)       171.9403                                         !
 ! A258  L(8,20,37,6,-2)       169.8188                                         !
 ! A259  L(20,37,63,1,-2)      177.9662                                         !
 ! A260  L(66,78,102,68,-2)    187.6178                                         !
 ! A261  L(68,78,95,66,-2)     174.556                                          !
 ! A262  L(78,95,122,7,-2)     176.9697                                         !
 ! D1    D(1,2,10,12)          -65.3711                                         !
 ! D2    D(1,2,10,16)           52.5887                                         !
 ! D3    D(1,2,10,22)          170.2162                                         !
 ! D4    D(3,2,10,12)           54.4642                                         !
 ! D5    D(3,2,10,16)          172.424                                          !
 ! D6    D(3,2,10,22)          -69.9485                                         !
 ! D7    D(4,2,10,12)          176.5071                                         !
 ! D8    D(4,2,10,16)          -65.5331                                         !
 ! D9    D(4,2,10,22)           52.0944                                         !
 ! D10   D(20,6,9,69)         -109.4347                                         !
 ! D11   D(20,6,9,121)          65.4824                                         !
 ! D12   D(9,6,20,8)           -17.7414                                         !
 ! D13   D(9,6,20,29)           73.7082                                         !
 ! D14   D(9,6,20,37)          172.4398                                         !
 ! D15   D(9,6,44,43)          -72.1378                                         !
 ! D16   D(9,6,44,53)           98.1404                                         !
 ! D17   D(128,8,20,6)          41.1381                                         !
 ! D18   D(128,8,20,29)        -56.0835                                         !
 ! D19   D(128,8,20,44)       -130.8021                                         !
 ! D20   D(20,8,128,121)      -109.4299                                         !
 ! D21   D(6,9,69,66)          162.0011                                         !
 ! D22   D(121,9,69,66)        -13.6642                                         !
 ! D23   D(6,9,121,68)         118.6527                                         !
 ! D24   D(6,9,121,128)       -107.9267                                         !
 ! D25   D(69,9,121,68)        -64.5717                                         !
 ! D26   D(69,9,121,128)        68.849                                          !
 ! D27   D(2,10,22,23)        -176.471                                          !
 ! D28   D(2,10,22,35)          53.7886                                         !
 ! D29   D(12,10,22,23)         59.2853                                         !
 ! D30   D(12,10,22,35)        -70.4551                                         !
 ! D31   D(16,10,22,23)        -56.8769                                         !
 ! D32   D(16,10,22,35)        173.3826                                         !
 ! D33   D(5,13,24,27)          62.4735                                         !
 ! D34   D(5,13,24,29)         -51.8865                                         !
 ! D35   D(5,13,24,38)        -178.7981                                         !
 ! D36   D(11,13,24,27)        -56.4047                                         !
 ! D37   D(11,13,24,29)       -170.7647                                         !
 ! D38   D(11,13,24,38)         62.3236                                         !
 ! D39   D(15,13,24,27)       -174.9805                                         !
 ! D40   D(15,13,24,29)         70.6595                                         !
 ! D41   D(15,13,24,38)        -56.2521                                         !
 ! D42   D(7,17,28,29)         -66.4824                                         !
 ! D43   D(7,17,28,31)          59.3871                                         !
 ! D44   D(7,17,28,40)         178.2921                                         !
 ! D45   D(14,17,28,29)         54.6748                                         !
 ! D46   D(14,17,28,31)       -179.4558                                         !
 ! D47   D(14,17,28,40)        -60.5507                                         !
 ! D48   D(18,17,28,29)        174.3425                                         !
 ! D49   D(18,17,28,31)        -59.7881                                         !
 ! D50   D(18,17,28,40)         59.117                                          !
 ! D51   D(6,20,29,24)        -104.3695                                         !
 ! D52   D(6,20,29,28)          40.6025                                         !
 ! D53   D(6,20,29,50)         148.3406                                         !
 ! D54   D(8,20,29,24)         -16.6976                                         !
 ! D55   D(8,20,29,28)         128.2744                                         !
 ! D56   D(8,20,29,50)        -123.9875                                         !
 ! D57   D(37,20,29,24)        162.9753                                         !
 ! D58   D(37,20,29,28)        -52.0527                                         !
 ! D59   D(37,20,29,50)         55.6854                                         !
 ! D60   D(44,20,29,24)         71.445                                          !
 ! D61   D(44,20,29,28)       -143.583                                          !
 ! D62   D(44,20,29,50)        -35.8448                                         !
 ! D63   D(8,20,44,43)         -55.8395                                         !
 ! D64   D(8,20,44,53)         118.4616                                         !
 ! D65   D(29,20,44,43)       -148.0239                                         !
 ! D66   D(29,20,44,53)         26.2772                                         !
 ! D67   D(37,20,44,43)        114.2001                                         !
 ! D68   D(37,20,44,53)        -71.4988                                         !
 ! D69   D(10,22,23,19)         47.5847                                         !
 ! D70   D(10,22,23,30)        -72.1698                                         !
 ! D71   D(10,22,23,43)        163.3861                                         !
 ! D72   D(35,22,23,19)        178.2784                                         !
 ! D73   D(35,22,23,30)         58.5239                                         !
 ! D74   D(35,22,23,43)        -65.9202                                         !
 ! D75   D(10,22,35,32)        -63.8437                                         !
 ! D76   D(10,22,35,45)         59.903                                          !
 ! D77   D(10,22,35,47)       -176.9323                                         !
 ! D78   D(23,22,35,32)        167.6249                                         !
 ! D79   D(23,22,35,45)        -68.6284                                         !
 ! D80   D(23,22,35,47)         54.5363                                         !
 ! D81   D(19,23,43,44)         74.0488                                         !
 ! D82   D(19,23,43,54)       -103.4829                                         !
 ! D83   D(22,23,43,44)        -41.4931                                         !
 ! D84   D(22,23,43,54)        140.9752                                         !
 ! D85   D(30,23,43,44)       -168.0701                                         !
 ! D86   D(30,23,43,54)         14.3982                                         !
 ! D87   D(13,24,27,21)        -68.6871                                         !
 ! D88   D(13,24,27,25)         51.8686                                         !
 ! D89   D(13,24,27,46)        169.5034                                         !
 ! D90   D(29,24,27,21)         46.625                                          !
 ! D91   D(29,24,27,25)        167.1807                                         !
 ! D92   D(29,24,27,46)        -75.1845                                         !
 ! D93   D(38,24,27,21)        171.3204                                         !
 ! D94   D(38,24,27,25)        -68.124                                          !
 ! D95   D(38,24,27,46)         49.5109                                         !
 ! D96   D(13,24,29,20)         89.1281                                         !
 ! D97   D(13,24,29,28)        -57.4781                                         !
 ! D98   D(13,24,29,50)       -169.7137                                         !
 ! D99   D(27,24,29,20)        -26.1989                                         !
 ! D100  D(27,24,29,28)       -172.8051                                         !
 ! D101  D(27,24,29,50)         74.9593                                         !
 ! D102  D(38,24,29,20)       -146.7117                                         !
 ! D103  D(38,24,29,28)         66.6821                                         !
 ! D104  D(38,24,29,50)        -45.5535                                         !
 ! D105  D(13,24,38,36)        -61.2201                                         !
 ! D106  D(13,24,38,41)         58.2841                                         !
 ! D107  D(13,24,38,52)       -178.8784                                         !
 ! D108  D(27,24,38,36)         56.9544                                         !
 ! D109  D(27,24,38,41)        176.4586                                         !
 ! D110  D(27,24,38,52)        -60.7038                                         !
 ! D111  D(29,24,38,36)        176.1647                                         !
 ! D112  D(29,24,38,41)        -64.3311                                         !
 ! D113  D(29,24,38,52)         58.5065                                         !
 ! D114  D(17,28,29,20)        -62.519                                          !
 ! D115  D(17,28,29,24)         86.3443                                         !
 ! D116  D(17,28,29,50)       -162.3783                                         !
 ! D117  D(31,28,29,20)        174.4145                                         !
 ! D118  D(31,28,29,24)        -36.7222                                         !
 ! D119  D(31,28,29,50)         74.5552                                         !
 ! D120  D(40,28,29,20)         52.4396                                         !
 ! D121  D(40,28,29,24)       -158.697                                          !
 ! D122  D(40,28,29,50)        -47.4196                                         !
 ! D123  D(17,28,31,26)        -55.4065                                         !
 ! D124  D(17,28,31,34)         63.3575                                         !
 ! D125  D(17,28,31,48)       -177.8066                                         !
 ! D126  D(29,28,31,26)         65.0521                                         !
 ! D127  D(29,28,31,34)       -176.1839                                         !
 ! D128  D(29,28,31,48)        -57.348                                          !
 ! D129  D(40,28,31,26)       -173.4914                                         !
 ! D130  D(40,28,31,34)        -54.7274                                         !
 ! D131  D(40,28,31,48)         64.1085                                         !
 ! D132  D(17,28,40,39)         62.312                                          !
 ! D133  D(17,28,40,42)        -56.243                                          !
 ! D134  D(17,28,40,55)       -174.6645                                         !
 ! D135  D(29,28,40,39)        -51.638                                          !
 ! D136  D(29,28,40,42)       -170.193                                          !
 ! D137  D(29,28,40,55)         71.3855                                         !
 ! D138  D(31,28,40,39)       -177.528                                          !
 ! D139  D(31,28,40,42)         63.9169                                         !
 ! D140  D(31,28,40,55)        -54.5046                                         !
 ! D141  D(20,29,50,53)         50.0896                                         !
 ! D142  D(20,29,50,57)        -66.4195                                         !
 ! D143  D(20,29,50,58)        174.7288                                         !
 ! D144  D(24,29,50,53)        -74.5419                                         !
 ! D145  D(24,29,50,57)        168.9489                                         !
 ! D146  D(24,29,50,58)         50.0973                                         !
 ! D147  D(28,29,50,53)        168.5052                                         !
 ! D148  D(28,29,50,57)         51.996                                          !
 ! D149  D(28,29,50,58)        -66.8556                                         !
 ! D150  D(22,35,45,33)        -61.6704                                         !
 ! D151  D(22,35,45,49)         59.8246                                         !
 ! D152  D(22,35,45,51)        179.0672                                         !
 ! D153  D(32,35,45,33)         60.8055                                         !
 ! D154  D(32,35,45,49)       -177.6995                                         !
 ! D155  D(32,35,45,51)        -58.457                                          !
 ! D156  D(47,35,45,33)        176.5747                                         !
 ! D157  D(47,35,45,49)        -61.9304                                         !
 ! D158  D(47,35,45,51)         57.3122                                         !
 ! D159  D(23,43,44,20)         -1.0081                                         !
 ! D160  D(23,43,44,53)       -175.4197                                         !
 ! D161  D(54,43,44,20)        176.5334                                         !
 ! D162  D(54,43,44,53)          2.1217                                         !
 ! D163  D(23,43,54,56)         -3.08                                           !
 ! D164  D(23,43,54,60)        176.9539                                         !
 ! D165  D(44,43,54,56)        179.5158                                         !
 ! D166  D(44,43,54,60)         -0.4503                                         !
 ! D167  D(20,44,53,50)          0.8367                                         !
 ! D168  D(20,44,53,59)       -176.7301                                         !
 ! D169  D(43,44,53,50)        175.0704                                         !
 ! D170  D(43,44,53,59)         -2.4965                                         !
 ! D171  D(29,50,53,44)        -40.4661                                         !
 ! D172  D(29,50,53,59)        137.0943                                         !
 ! D173  D(57,50,53,44)         73.573                                          !
 ! D174  D(57,50,53,59)       -108.8666                                         !
 ! D175  D(58,50,53,44)       -167.5194                                         !
 ! D176  D(58,50,53,59)         10.041                                          !
 ! D177  D(44,53,59,60)          1.2001                                         !
 ! D178  D(44,53,59,61)       -179.497                                          !
 ! D179  D(50,53,59,60)       -176.259                                          !
 ! D180  D(50,53,59,61)          3.0438                                         !
 ! D181  D(43,54,60,59)         -0.8383                                         !
 ! D182  D(43,54,60,62)        179.6486                                         !
 ! D183  D(56,54,60,59)        179.1963                                         !
 ! D184  D(56,54,60,62)         -0.3168                                         !
 ! D185  D(53,59,60,54)          0.4752                                         !
 ! D186  D(53,59,60,62)        179.989                                          !
 ! D187  D(61,59,60,54)       -178.814                                          !
 ! D188  D(61,59,60,62)          0.6998                                         !
 ! D189  D(123,64,70,80)      -179.7777                                         !
 ! D190  D(123,64,70,126)      -58.4573                                         !
 ! D191  D(123,64,70,127)       58.2534                                         !
 ! D192  D(124,64,70,80)        61.2838                                         !
 ! D193  D(124,64,70,126)     -177.3959                                         !
 ! D194  D(124,64,70,127)      -60.6851                                         !
 ! D195  D(125,64,70,80)       -61.7303                                         !
 ! D196  D(125,64,70,126)       59.5901                                         !
 ! D197  D(125,64,70,127)      176.3008                                         !
 ! D198  D(78,66,69,9)         110.9091                                         !
 ! D199  D(69,66,78,68)       -146.6354                                         !
 ! D200  D(69,66,78,87)        -52.9365                                         !
 ! D201  D(69,66,78,95)         38.8086                                         !
 ! D202  D(69,66,102,101)      148.7404                                         !
 ! D203  D(69,66,102,111)      -33.1352                                         !
 ! D204  D(121,68,78,66)        -1.8412                                         !
 ! D205  D(121,68,78,87)      -107.9285                                         !
 ! D206  D(121,68,78,102)      170.541                                          !
 ! D207  D(78,68,121,9)         45.4962                                         !
 ! D208  D(78,68,121,128)      -26.5455                                         !
 ! D209  D(64,70,80,81)         63.8952                                         !
 ! D210  D(64,70,80,93)        -58.749                                          !
 ! D211  D(126,70,80,81)       -59.6135                                         !
 ! D212  D(126,70,80,93)       177.7422                                         !
 ! D213  D(127,70,80,81)      -171.8666                                         !
 ! D214  D(127,70,80,93)        65.4891                                         !
 ! D215  D(65,72,82,85)         62.3865                                         !
 ! D216  D(65,72,82,87)        -53.6177                                         !
 ! D217  D(65,72,82,96)       -179.6381                                         !
 ! D218  D(71,72,82,85)        -57.5002                                         !
 ! D219  D(71,72,82,87)       -173.5044                                         !
 ! D220  D(71,72,82,96)         60.4752                                         !
 ! D221  D(74,72,82,85)       -176.3271                                         !
 ! D222  D(74,72,82,87)         67.6687                                         !
 ! D223  D(74,72,82,96)        -58.3517                                         !
 ! D224  D(67,75,86,87)        -51.4782                                         !
 ! D225  D(67,75,86,89)         73.2697                                         !
 ! D226  D(67,75,86,98)       -170.1432                                         !
 ! D227  D(73,75,86,87)         69.4765                                         !
 ! D228  D(73,75,86,89)       -165.7755                                         !
 ! D229  D(73,75,86,98)        -49.1885                                         !
 ! D230  D(76,75,86,87)       -172.2646                                         !
 ! D231  D(76,75,86,89)        -47.5166                                         !
 ! D232  D(76,75,86,98)         69.0704                                         !
 ! D233  D(66,78,87,82)        -91.7291                                         !
 ! D234  D(66,78,87,86)         47.589                                          !
 ! D235  D(66,78,87,108)       160.102                                          !
 ! D236  D(68,78,87,82)         -5.5376                                         !
 ! D237  D(68,78,87,86)        133.7805                                         !
 ! D238  D(68,78,87,108)      -113.7065                                         !
 ! D239  D(95,78,87,82)        174.1445                                         !
 ! D240  D(95,78,87,86)        -46.5374                                         !
 ! D241  D(95,78,87,108)        65.9755                                         !
 ! D242  D(102,78,87,82)        81.1315                                         !
 ! D243  D(102,78,87,86)      -139.5504                                         !
 ! D244  D(102,78,87,108)      -27.0375                                         !
 ! D245  D(68,78,102,101)      -64.6986                                         !
 ! D246  D(68,78,102,111)      115.5323                                         !
 ! D247  D(87,78,102,101)     -160.09                                           !
 ! D248  D(87,78,102,111)       20.1409                                         !
 ! D249  D(95,78,102,101)      109.7451                                         !
 ! D250  D(95,78,102,111)      -70.024                                          !
 ! D251  D(70,80,81,77)         46.0955                                         !
 ! D252  D(70,80,81,88)        -74.2854                                         !
 ! D253  D(70,80,81,101)       160.859                                          !
 ! D254  D(93,80,81,77)        170.2646                                         !
 ! D255  D(93,80,81,88)         49.8837                                         !
 ! D256  D(93,80,81,101)       -74.9719                                         !
 ! D257  D(70,80,93,90)       -172.1312                                         !
 ! D258  D(70,80,93,103)       -50.0293                                         !
 ! D259  D(70,80,93,105)        72.9596                                         !
 ! D260  D(81,80,93,90)         65.05                                           !
 ! D261  D(81,80,93,103)      -172.8482                                         !
 ! D262  D(81,80,93,105)       -49.8593                                         !
 ! D263  D(77,81,101,102)       77.184                                          !
 ! D264  D(77,81,101,112)      -98.8779                                         !
 ! D265  D(80,81,101,102)      -37.1458                                         !
 ! D266  D(80,81,101,112)      146.7923                                         !
 ! D267  D(88,81,101,102)     -162.8903                                         !
 ! D268  D(88,81,101,112)       21.0478                                         !
 ! D269  D(72,82,85,79)        -61.0359                                         !
 ! D270  D(72,82,85,83)         58.43                                           !
 ! D271  D(72,82,85,104)       175.4107                                         !
 ! D272  D(87,82,85,79)         55.311                                          !
 ! D273  D(87,82,85,83)        174.7769                                         !
 ! D274  D(87,82,85,104)       -68.2424                                         !
 ! D275  D(96,82,85,79)        178.9816                                         !
 ! D276  D(96,82,85,83)        -61.5525                                         !
 ! D277  D(96,82,85,104)        55.4282                                         !
 ! D278  D(72,82,87,78)         77.1509                                         !
 ! D279  D(72,82,87,86)        -65.4359                                         !
 ! D280  D(72,82,87,108)      -178.3193                                         !
 ! D281  D(85,82,87,78)        -40.3211                                         !
 ! D282  D(85,82,87,86)        177.0921                                         !
 ! D283  D(85,82,87,108)        64.2087                                         !
 ! D284  D(96,82,87,78)       -159.3237                                         !
 ! D285  D(96,82,87,86)         58.0895                                         !
 ! D286  D(96,82,87,108)       -54.7939                                         !
 ! D287  D(72,82,96,94)        -69.3776                                         !
 ! D288  D(72,82,96,99)         49.133                                          !
 ! D289  D(72,82,96,110)       173.5312                                         !
 ! D290  D(85,82,96,94)         49.8162                                         !
 ! D291  D(85,82,96,99)        168.3268                                         !
 ! D292  D(85,82,96,110)       -67.275                                          !
 ! D293  D(87,82,96,94)        168.6819                                         !
 ! D294  D(87,82,96,99)        -72.8075                                         !
 ! D295  D(87,82,96,110)        51.5908                                         !
 ! D296  D(75,86,87,78)        -43.8757                                         !
 ! D297  D(75,86,87,82)         98.3866                                         !
 ! D298  D(75,86,87,108)      -150.9562                                         !
 ! D299  D(89,86,87,78)       -164.5279                                         !
 ! D300  D(89,86,87,82)        -22.2657                                         !
 ! D301  D(89,86,87,108)        88.3916                                         !
 ! D302  D(98,86,87,78)         74.0023                                         !
 ! D303  D(98,86,87,82)       -143.7354                                         !
 ! D304  D(98,86,87,108)       -33.0781                                         !
 ! D305  D(75,86,89,84)        -56.3159                                         !
 ! D306  D(75,86,89,92)         61.9563                                         !
 ! D307  D(75,86,89,106)      -179.9336                                         !
 ! D308  D(87,86,89,84)         62.3276                                         !
 ! D309  D(87,86,89,92)       -179.4002                                         !
 ! D310  D(87,86,89,106)       -61.2901                                         !
 ! D311  D(98,86,89,84)       -174.3543                                         !
 ! D312  D(98,86,89,92)        -56.0821                                         !
 ! D313  D(98,86,89,106)        62.0279                                         !
 ! D314  D(75,86,98,97)         63.6765                                         !
 ! D315  D(75,86,98,100)       -55.0195                                         !
 ! D316  D(75,86,98,113)      -172.6296                                         !
 ! D317  D(87,86,98,97)        -51.882                                          !
 ! D318  D(87,86,98,100)      -170.578                                          !
 ! D319  D(87,86,98,113)        71.812                                          !
 ! D320  D(89,86,98,97)       -178.3308                                         !
 ! D321  D(89,86,98,100)        62.9732                                         !
 ! D322  D(89,86,98,113)       -54.6368                                         !
 ! D323  D(78,87,108,111)       36.2393                                         !
 ! D324  D(78,87,108,115)      -79.9913                                         !
 ! D325  D(78,87,108,116)      162.0987                                         !
 ! D326  D(82,87,108,111)      -84.8231                                         !
 ! D327  D(82,87,108,115)      158.9462                                         !
 ! D328  D(82,87,108,116)       41.0363                                         !
 ! D329  D(86,87,108,111)      159.1338                                         !
 ! D330  D(86,87,108,115)       42.9031                                         !
 ! D331  D(86,87,108,116)      -75.0068                                         !
 ! D332  D(80,93,103,91)       -45.8149                                         !
 ! D333  D(80,93,103,107)       75.0116                                         !
 ! D334  D(80,93,103,109)     -165.4304                                         !
 ! D335  D(90,93,103,91)        74.4151                                         !
 ! D336  D(90,93,103,107)     -164.7585                                         !
 ! D337  D(90,93,103,109)      -45.2004                                         !
 ! D338  D(105,93,103,91)     -168.6358                                         !
 ! D339  D(105,93,103,107)     -47.8094                                         !
 ! D340  D(105,93,103,109)      71.7487                                         !
 ! D341  D(81,101,102,78)        4.6184                                         !
 ! D342  D(81,101,102,111)    -175.608                                          !
 ! D343  D(112,101,102,78)    -179.1835                                         !
 ! D344  D(112,101,102,111)      0.5901                                         !
 ! D345  D(81,101,112,114)      -4.6788                                         !
 ! D346  D(81,101,112,118)     174.8506                                         !
 ! D347  D(102,101,112,114)    179.4649                                         !
 ! D348  D(102,101,112,118)     -1.0057                                         !
 ! D349  D(78,102,111,108)       0.7611                                         !
 ! D350  D(78,102,111,117)    -179.9645                                         !
 ! D351  D(101,102,111,108)   -178.9961                                         !
 ! D352  D(101,102,111,117)      0.2783                                         !
 ! D353  D(87,108,111,102)     -27.7702                                         !
 ! D354  D(87,108,111,117)     152.9825                                         !
 ! D355  D(115,108,111,102)     86.761                                          !
 ! D356  D(115,108,111,117)    -92.4864                                         !
 ! D357  D(116,108,111,102)   -155.3965                                         !
 ! D358  D(116,108,111,117)     25.3562                                         !
 ! D359  D(102,111,117,118)     -0.7083                                         !
 ! D360  D(102,111,117,119)    179.4589                                         !
 ! D361  D(108,111,117,118)    178.5073                                         !
 ! D362  D(108,111,117,119)     -1.3255                                         !
 ! D363  D(101,112,118,117)      0.5599                                         !
 ! D364  D(101,112,118,120)   -179.5938                                         !
 ! D365  D(114,112,118,117)   -179.9184                                         !
 ! D366  D(114,112,118,120)     -0.0721                                         !
 ! D367  D(111,117,118,112)      0.2762                                         !
 ! D368  D(111,117,118,120)   -179.5703                                         !
 ! D369  D(119,117,118,112)   -179.8936                                         !
 ! D370  D(119,117,118,120)      0.26                                           !
 ! D371  D(9,121,128,8)        108.3222                                         !
 ! D372  D(68,121,128,8)      -152.7063                                         !
 --------------------------------------------------------------------------------
 Stoichiometry    C40H74N4O6P2Ru2(3)
 Framework group  C1[X(C40H74N4O6P2Ru2)]
 Deg. of freedom   378
 Full point group                 C1      NOp   1
 Largest Abelian subgroup         C1      NOp   1
 Largest concise Abelian subgroup C1      NOp   1
                         Standard orientation:                         
 ---------------------------------------------------------------------
 Center     Atomic      Atomic             Coordinates (Angstroms)
 Number     Number       Type             X           Y           Z
 ---------------------------------------------------------------------
      1          1           0        0.318629   -4.295646   -0.543675
      2          6           0       -0.747820   -4.056201   -0.660069
      3          1           0       -1.256655   -4.958125   -1.034758
      4          1           0       -0.834244   -3.259024   -1.413830
      5          1           0       -0.898634    2.854726    0.604796
      6          8           0       -0.810905   -0.465198   -1.742470
      7          1           0       -1.038049    3.356020   -1.860629
      8          8           0       -1.244852   -0.420662    1.013479
      9          1           0       -0.197308   -0.010362   -1.120691
     10          6           0       -1.293049   -3.578155    0.668985
     11          1           0       -1.522752    4.120178    1.696530
     12          1           0       -1.264909   -4.400870    1.414793
     13          6           0       -1.716738    3.578785    0.754412
     14          1           0       -1.156040    1.734556   -2.602683
     15          1           0       -1.688684    4.320262   -0.057724
     16          1           0       -0.658520   -2.764395    1.049535
     17          6           0       -1.586513    2.748497   -2.594065
     18          1           0       -1.437883    3.209069   -3.585703
     19          1           0       -2.249120   -1.890793    2.237443
     20         44           0       -2.423612   -0.744114   -0.659792
     21          1           0       -2.346004    1.114246    1.953356
     22          7           0       -2.643890   -3.019255    0.569418
     23          6           0       -3.080839   -2.504175    1.851215
     24          6           0       -3.072952    2.876405    0.857815
     25          1           0       -2.705491    2.566653    2.959079
     26          1           0       -3.189953    4.762397   -1.589967
     27          6           0       -3.036074    1.964444    2.094615
     28          6           0       -3.088357    2.684720   -2.286095
     29         15           0       -3.248313    1.722850   -0.654505
     30          1           0       -3.317032   -3.296034    2.589221
     31          6           0       -3.702082    4.081833   -2.283926
     32          1           0       -3.314527   -4.050858   -1.106160
     33          1           0       -2.957813   -5.856586    0.634870
     34          1           0       -3.612354    4.517044   -3.294436
     35          6           0       -3.629653   -3.895926   -0.064664
     36          1           0       -4.025180    4.455540    1.971487
     37          6           0       -3.364562   -1.341200   -2.125814
     38          6           0       -4.196496    3.896285    1.034963
     39          1           0       -3.373464    0.823304   -3.404628
     40          6           0       -3.750142    1.854771   -3.388793
     41          1           0       -4.251574    4.628112    0.219444
     42          1           0       -3.510936    2.312809   -4.362971
     43          6           0       -4.257807   -1.586999    1.699251
     44          7           0       -4.217364   -0.729026    0.665000
     45          6           0       -3.868783   -5.239424    0.612862
     46          1           0       -4.032735    1.568622    2.340577
     47          1           0       -4.575004   -3.333171   -0.122468
     48          1           0       -4.772516    4.064063   -2.026863
     49          1           0       -4.225926   -5.128222    1.648534
     50          6           0       -5.035214    1.187020   -0.585440
     51          1           0       -4.636879   -5.801154    0.059865
     52          1           0       -5.179723    3.410232    1.131399
     53          6           0       -5.195056    0.187677    0.519194
     54          6           0       -5.312785   -1.584488    2.608643
     55          1           0       -4.846809    1.833788   -3.300163
     56          1           0       -5.312137   -2.302252    3.429902
     57          1           0       -5.222784    0.687774   -1.548633
     58          1           0       -5.759609    2.006739   -0.475893
     59          6           0       -6.281100    0.233611    1.392987
     60          6           0       -6.344234   -0.667199    2.449041
     61          1           0       -7.058580    0.983105    1.241088
     62          1           0       -7.185334   -0.648356    3.144686
     63          8           0       -3.952392   -1.781036   -3.031273
     64          6           0        0.466339    0.929436    4.499277
     65          1           0        1.051193   -1.869142   -1.773868
     66          8           0        0.682454    1.251874   -0.045348
     67          1           0        1.175041    0.580343   -3.038986
     68          8           0        1.590544   -1.203805    0.910531
     69          1           0        0.688476    1.875126   -0.777947
     70          6           0        0.801494    0.869993    3.018107
     71          1           0        1.583717   -3.349780   -2.614697
     72          6           0        1.791469   -2.276005   -2.475568
     73          1           0        1.809037    2.093880   -2.354490
     74          1           0        1.630514   -1.784649   -3.445949
     75          6           0        1.946250    1.356467   -3.157612
     76          1           0        1.775846    1.870546   -4.118057
     77          1           0        2.267591   -1.133798    2.938735
[...]
  Beta virt. eigenvalues --    5.21290   5.21510   5.21608   5.21779   5.22132
  Beta virt. eigenvalues --    5.22258   5.22449   5.22903   5.23149   5.23246
  Beta virt. eigenvalues --    5.23476   5.23936   5.23977   5.24246   5.24292
  Beta virt. eigenvalues --    5.24795   5.25374   5.25818   5.26117   5.26495
  Beta virt. eigenvalues --    5.26700   5.26734   5.26879   5.27281   5.27471
  Beta virt. eigenvalues --    5.27600   5.27981   5.28345   5.28562   5.29125
  Beta virt. eigenvalues --    5.29195   5.29470   5.29887   5.30304   5.30523
  Beta virt. eigenvalues --    5.30835   5.30940   5.31360   5.31668   5.31900
  Beta virt. eigenvalues --    5.32213   5.32904   5.33105   5.33248   5.33881
  Beta virt. eigenvalues --    5.34838   5.35003   5.35175   5.35380   5.35781
  Beta virt. eigenvalues --    5.35956   5.36005   5.36228   5.36595   5.36710
  Beta virt. eigenvalues --    5.36966   5.37217   5.37514   5.37601   5.37946
  Beta virt. eigenvalues --    5.38151   5.38456   5.38577   5.38767   5.38963
  Beta virt. eigenvalues --    5.39090   5.39239   5.39333   5.39850   5.39927
  Beta virt. eigenvalues --    5.40484   5.40804   5.40975   5.41377   5.41489
  Beta virt. eigenvalues --    5.41617   5.41933   5.42243   5.42410   5.42501
  Beta virt. eigenvalues --    5.42831   5.43266   5.43442   5.43549   5.43959
  Beta virt. eigenvalues --    5.44410   5.44556   5.44746   5.44876   5.45241
  Beta virt. eigenvalues --    5.45307   5.45913   5.46205   5.46492   5.46715
  Beta virt. eigenvalues --    5.47038   5.47383   5.47647   5.47876   5.48557
  Beta virt. eigenvalues --    5.48707   5.49132   5.49343   5.49546   5.49856
  Beta virt. eigenvalues --    5.49940   5.50218   5.50564   5.50778   5.50819
  Beta virt. eigenvalues --    5.51129   5.51357   5.51510   5.51731   5.51886
  Beta virt. eigenvalues --    5.52352   5.52575   5.52721   5.53556   5.54123
  Beta virt. eigenvalues --    5.54584   5.54770   5.55295   5.55435   5.55755
  Beta virt. eigenvalues --    5.56089   5.56256   5.56813   5.57285   5.57854
  Beta virt. eigenvalues --    5.58179   5.58801   5.59053   5.59222   5.59778
  Beta virt. eigenvalues --    5.59919   5.60153   5.60340   5.60849   5.61371
  Beta virt. eigenvalues --    5.61790   5.61992   5.62573   5.62908   5.63647
  Beta virt. eigenvalues --    5.63906   5.64100   5.64707   5.65905   5.66850
  Beta virt. eigenvalues --    5.67839   5.68577   5.69149   5.69446   5.71061
  Beta virt. eigenvalues --    5.71757   5.72508   5.73448   5.75433   5.77457
  Beta virt. eigenvalues --    5.78714   5.79577   5.82807   5.83626   5.85845
  Beta virt. eigenvalues --    5.88201   5.88339   5.89177   5.90649   5.94686
  Beta virt. eigenvalues --    5.94920   5.95963   5.99384   5.99695   6.00331
  Beta virt. eigenvalues --    6.00758   6.01048   6.01678   6.01779   6.02324
  Beta virt. eigenvalues --    6.02652   6.03251   6.03777   6.04130   6.04432
  Beta virt. eigenvalues --    6.04586   6.05010   6.05238   6.05585   6.06477
  Beta virt. eigenvalues --    6.07242   6.07751   6.07848   6.08502   6.09180
  Beta virt. eigenvalues --    6.09637   6.10084   6.10263   6.10883   6.11553
  Beta virt. eigenvalues --    6.11909   6.12556   6.13381   6.13924   6.14288
  Beta virt. eigenvalues --    6.14715   6.15181   6.15752   6.16483   6.17288
  Beta virt. eigenvalues --    6.18192   6.18901   6.19842   6.20089   6.20764
  Beta virt. eigenvalues --    6.21250   6.22680   6.23051   6.24571   6.24966
  Beta virt. eigenvalues --    6.25920   6.26394   6.27365   6.27861   6.30171
  Beta virt. eigenvalues --    6.30825   6.31508   6.31605   6.32581   6.34425
  Beta virt. eigenvalues --    6.34712   6.35223   6.35964   6.42852   6.43505
  Beta virt. eigenvalues --    6.45010   6.46050   6.48644   6.51010   6.54607
  Beta virt. eigenvalues --    6.54910   6.57546   6.58735   6.59801   6.62421
  Beta virt. eigenvalues --    6.64827   6.66041   6.69607   6.71225   6.74415
  Beta virt. eigenvalues --    6.75402   6.76949   6.78135   6.79162   6.80195
  Beta virt. eigenvalues --    6.82277   6.82797   6.84036   6.84843   6.86559
  Beta virt. eigenvalues --    6.87925   6.88261   6.90464   6.93296   6.93829
  Beta virt. eigenvalues --    6.96930   6.99563   7.01420   7.06543   7.09513
  Beta virt. eigenvalues --    7.23368   7.28767   7.31317   7.37630   7.46002
  Beta virt. eigenvalues --    7.55143   7.57762   7.61420   8.50513   8.74315
  Beta virt. eigenvalues --    9.78450   9.85317   9.95136  10.03034  10.09107
  Beta virt. eigenvalues --   10.29170  10.88586  11.03415  12.32136  12.35056
  Beta virt. eigenvalues --   12.35481  12.40572  12.61509  12.71064  12.75099
  Beta virt. eigenvalues --   12.85230  12.88926  12.92667  13.02653  13.03590
  Beta virt. eigenvalues --   13.12330  13.25007  13.27955  13.29817  13.32731
  Beta virt. eigenvalues --   13.46373  13.49301  13.62509  13.67366  13.69569
  Beta virt. eigenvalues --   13.69928  13.72837  13.73927  13.78627  13.81978
  Beta virt. eigenvalues --   13.85271  13.88752  13.89771  13.92922  13.96538
  Beta virt. eigenvalues --   13.99045  14.03688  14.12506  14.16988  14.20191
  Beta virt. eigenvalues --   14.26239  15.08939  15.09236  35.41894  35.47695
  Beta virt. eigenvalues --   35.54134  35.62330  35.69035  35.85745  46.28200
  Beta virt. eigenvalues --   46.38961
          Condensed to atoms (all electrons):
          Atomic-Atomic Spin Densities.
 Mulliken charges and spin densities:
               1          2
     1  H    0.123652  -0.000187
     2  C   -0.360518   0.002050
     3  H    0.117169   0.000290
     4  H    0.127038  -0.001256
     5  H    0.109766   0.001560
     6  O   -0.740441   0.139498
     7  H    0.125317  -0.000298
     8  O   -0.820041   0.012747
     9  H    0.301949  -0.002239
    10  C   -0.118625  -0.002877
    11  H    0.107035  -0.000484
    12  H    0.104853   0.006505
    13  C   -0.368932  -0.001063
    14  H    0.118846   0.001773
    15  H    0.124939   0.000277
    16  H    0.127314   0.001277
    17  C   -0.347782   0.000972
    18  H    0.107785   0.000031
    19  H    0.167023   0.000262
    20  Ru   0.925731   1.691588
    21  H    0.132448  -0.001565
    22  N   -0.183179   0.080941
    23  C   -0.134720   0.000520
    24  C    0.031274   0.021212
    25  H    0.103498  -0.000343
    26  H    0.118994  -0.000393
    27  C   -0.380431  -0.000417
    28  C    0.014592   0.005253
    29  P    0.089264   0.167396
    30  H    0.117051   0.002860
    31  C   -0.334100   0.003366
    32  H    0.122596   0.002011
    33  H    0.108812  -0.000144
    34  H    0.106038   0.004265
    35  C   -0.115759  -0.003001
    36  H    0.105551   0.006482
    37  C   -0.150435  -0.114651
    38  C   -0.335119   0.004695
    39  H    0.137091   0.000663
    40  C   -0.360911  -0.001031
    41  H    0.118387  -0.000665
    42  H    0.110378   0.000537
    43  C    0.119821  -0.000552
    44  N   -0.214517   0.010203
    45  C   -0.326477   0.002450
    46  H    0.120077   0.000060
    47  H    0.123374   0.001633
    48  H    0.114382  -0.000599
    49  H    0.108367  -0.000116
    50  C   -0.242486  -0.008766
    51  H    0.113337   0.001299
    52  H    0.111566  -0.000336
    53  C    0.055136  -0.005580
    54  C   -0.143443   0.001523
    55  H    0.117287  -0.000215
    56  H    0.158779   0.001271
    57  H    0.179059   0.000727
    58  H    0.138507  -0.000551
    59  C   -0.121203   0.001710
    60  C   -0.139862  -0.002621
    61  H    0.161188   0.000765
    62  H    0.162736   0.000111
    63  O   -0.300576  -0.036294
    64  C   -0.337561   0.000010
    65  H    0.108263   0.003018
    66  O   -0.762413  -0.000557
    67  H    0.124681   0.000396
    68  O   -0.788373   0.000417
    69  H    0.287584   0.000020
    70  C   -0.125276   0.000011
    71  H    0.110810   0.000165
    72  C   -0.364037   0.001140
    73  H    0.127027  -0.000035
    74  H    0.132105  -0.000035
    75  C   -0.345811  -0.000359
    76  H    0.114873   0.000024
    77  H    0.179780  -0.000017
    78  Ru   0.979408   0.000164
    79  H    0.161993  -0.000024
    80  N   -0.193634   0.000048
    81  C   -0.117918  -0.000016
    82  C    0.018070   0.000200
    83  H    0.103648  -0.000006
    84  H    0.121070   0.000002
    85  C   -0.413033   0.000014
    86  C    0.011016   0.000033
    87  P    0.061788  -0.000177
    88  H    0.125664   0.000001
    89  C   -0.337850  -0.000002
    90  H    0.141308  -0.000003
    91  H    0.121740  -0.000005
    92  H    0.108508  -0.000001
    93  C   -0.125626   0.000009
    94  H    0.108807  -0.000007
    95  C   -0.183115  -0.000001
    96  C   -0.336397   0.000084
    97  H    0.141254  -0.000005
    98  C   -0.370338  -0.000005
    99  H    0.119042  -0.000008
   100  H    0.109392  -0.000001
   101  C    0.082460  -0.000004
   102  N   -0.127386   0.000035
   103  C   -0.347473   0.000004
   104  H    0.117487  -0.000004
   105  H    0.118988   0.000002
   106  H    0.111989   0.000000
   107  H    0.120574   0.000004
   108  C   -0.233913   0.000004
   109  H    0.127136  -0.000000
   110  H    0.116151   0.000060
   111  C    0.046322  -0.000008
   112  C   -0.155515   0.000004
   113  H    0.114475   0.000001
   114  H    0.161468   0.000002
   115  H    0.167947  -0.000001
   116  H    0.146507   0.000002
   117  C   -0.130543   0.000006
   118  C   -0.136900  -0.000010
   119  H    0.164187  -0.000000
   120  H    0.163320   0.000000
   121  H    0.297267  -0.000054
   122  O   -0.302844  -0.000005
   123  H    0.122327  -0.000012
   124  H    0.109743   0.000012
   125  H    0.113785   0.000000
   126  H    0.135246   0.000852
   127  H    0.124136  -0.000094
   128  H    0.308161   0.000163
 Sum of Mulliken charges =  -0.00000   2.00000
 Mulliken charges and spin densities with hydrogens summed into heavy atoms:
               1          2
     2  C    0.007340   0.000897
     6  O   -0.438492   0.137259
     8  O   -0.511880   0.012910
    10  C    0.113542   0.004906
    13  C   -0.027192   0.000290
    17  C    0.004165   0.002478
    20  Ru   0.925731   1.691588
    22  N   -0.183179   0.080941
    23  C    0.149355   0.003643
    24  C    0.031274   0.021212
    27  C   -0.024407  -0.002265
    28  C    0.014592   0.005253
    29  P    0.089264   0.167396
    31  C    0.005313   0.006639
    35  C    0.130212   0.000643
    37  C   -0.150435  -0.114651
    38  C    0.000386   0.010176
    40  C    0.003845  -0.000045
    43  C    0.119821  -0.000552
    44  N   -0.214517   0.010203
    45  C    0.004039   0.003489
    50  C    0.075081  -0.008590
    53  C    0.055136  -0.005580
    54  C    0.015336   0.002793
    59  C    0.039985   0.002476
    60  C    0.022874  -0.002510
    63  O   -0.300576  -0.036294
    64  C    0.008294   0.000011
    66  O   -0.474829  -0.000537
    68  O   -0.491106   0.000363
    70  C    0.134106   0.000769
    72  C   -0.012860   0.004289
    75  C    0.020770   0.000027
    78  Ru   0.979408   0.000164
    80  N   -0.193634   0.000048
    81  C    0.187526  -0.000032
    82  C    0.018070   0.000200
    85  C   -0.029904  -0.000019
    86  C    0.011016   0.000033
    87  P    0.061788  -0.000177
    89  C    0.003718  -0.000002
    93  C    0.134670   0.000008
    95  C   -0.183115  -0.000001
    96  C    0.007603   0.000129
    98  C   -0.005218  -0.000010
   101  C    0.082460  -0.000004
   102  N   -0.127386   0.000035
   103  C    0.021977   0.000004
   108  C    0.080541   0.000006
   111  C    0.046322  -0.000008
   112  C    0.005953   0.000006
   117  C    0.033644   0.000006
   118  C    0.026419  -0.000010
   122  O   -0.302844  -0.000005
 Electronic spatial extent (au):  <R**2>=          36737.6189
 Charge=              0.0000 electrons
 Dipole moment (field-independent basis, Debye):
    X=              2.4216    Y=              1.7987    Z=              7.2026  Tot=              7.8087
 Quadrupole moment (field-independent basis, Debye-Ang):
   XX=           -260.5686   YY=           -367.0371   ZZ=           -350.9037
   XY=            -24.2539   XZ=            -19.8435   YZ=            -15.5452
 Traceless Quadrupole moment (field-independent basis, Debye-Ang):
   XX=             65.6012   YY=            -40.8673   ZZ=            -24.7339
   XY=            -24.2539   XZ=            -19.8435   YZ=            -15.5452
 Octapole moment (field-independent basis, Debye-Ang**2):
  XXX=             91.7493  YYY=            -55.2268  ZZZ=            119.9467  XYY=            -90.6437
  XXY=            -70.6671  XXZ=            184.6558  XZZ=            127.5007  YZZ=             24.1557
  YYZ=             15.0122  XYZ=             56.5181
 Hexadecapole moment (field-independent basis, Debye-Ang**3):
 XXXX=         -24230.8624 YYYY=         -11037.7342 ZZZZ=          -9951.7772 XXXY=           -827.9680
 XXXZ=           -364.2151 YYYX=            194.5095 YYYZ=             17.1290 ZZZX=            139.7512
 ZZZY=           -189.3410 XXYY=          -6614.2323 XXZZ=          -5850.7584 YYZZ=          -3464.3513
 XXYZ=           -415.3481 YYXZ=             19.4852 ZZXY=             14.6764
 N-N= 1.065684443222D+04 E-N=-2.855344282086D+04  KE= 2.970264946922D+03
 1\1\GINC-NODE178\SP\UPBE1PBE\GenECP\C40H74N4O6P2Ru2(3)\JS1212\06-Mar-2
 020\0\\# genecp pbe1pbe EmpiricalDispersion=GD3BJ scrf=(SMD,solvent=wa
 ter) geom=allcheck\\Title Card Required\\0,3\H,0,-1.286623106,-8.52685
 99747,1.4837309067\C,0,-0.5606537813,-9.2369871861,1.90430456\H,0,-0.9
 925761764,-9.6529406024,2.827991931\H,0,0.3515015619,-8.6761471403,2.1
 583652327\H,0,5.0382276404,-8.3183157577,-2.2420323806\O,0,2.794854311
 6,-7.7633590025,1.1043913926\H,0,6.1700526376,-6.9056313847,-0.4892203
 707\O,0,2.3149225776,-9.6518413805,-0.8928194776\H,0,2.7349703961,-7.5
 184005062,0.1523432763\C,0,-0.2498434299,-10.2955010926,0.8674195802\H
 ,0,6.1148542142,-9.104757968,-3.4274262612\H,0,-1.1546521465,-10.90404
 62113,0.6555820702\C,0,5.9909935024,-8.8612050597,-2.3580044187\H,0,5.
 0433105192,-6.9895637185,0.8953800143\H,0,6.818256623,-8.1916456788,-2
 .0796776215\H,0,0.0477447426,-9.8066074855,-0.0717684437\C,0,6.0995023
 406,-7.0750357988,0.5943611942\H,0,6.6796995929,-6.2805525596,1.094091
 3623\H,0,1.2135828993,-11.5051154734,-0.7501536202\Ru,0,3.021265178,-9
 .711958792,1.0543319451\H,0,3.8799209773,-10.658293945,-1.8876452363\N
 ,0,0.8739385104,-11.1572600059,1.2436405733\C,0,1.1784387885,-12.09469
 00768,0.181690772\C,0,5.99510239,-10.1618878718,-1.5508146466\H,0,5.01
 52066321,-11.1410358279,-3.2022860826\H,0,8.2858680991,-8.3904313998,-
 0.4660916719\C,0,4.8826548514,-11.0640136942,-2.1087889678\C,0,6.65896
 14779,-8.4437655047,1.0042773727\P,0,5.4922544616,-9.7363512185,0.2421
 199157\H,0,0.4239304154,-12.898383842,0.0709049093\C,0,8.1263240308,-8
 .5721886148,0.6056046236\H,0,0.745811553,-10.9970038821,3.3123175997\H
 ,0,-1.4034786859,-12.160152771,2.6439464528\H,0,8.7171498223,-7.819672
 0958,1.1562727914\C,0,0.7513346803,-11.7942299599,2.5557305665\H,0,7.4
 835112219,-11.1386169052,-2.7637909871\C,0,3.3317701289,-9.7721544768,
 2.8684657467\C,0,7.3325772917,-10.884972076,-1.6998002122\H,0,5.504100
 114,-8.5066556043,2.8642815243\C,0,6.5484181212,-8.5495597454,2.527204
 2797\H,0,8.1909446105,-10.281169629,-1.3799505821\H,0,7.080076102,-7.6
 945350883,2.9769965953\C,0,2.5392855284,-12.6995244275,0.3601000366\N,
 0,3.5174654303,-11.8650291672,0.7527939383\C,0,-0.4537145337,-12.70590
 76518,2.7504357297\H,0,4.9434068446,-12.0855151289,-1.7046245349\H,0,1
 .6801849517,-12.3605032668,2.7297841172\H,0,8.5387621699,-9.5619747627
 ,0.8554932497\H,0,-0.4643364398,-13.5438933802,2.0361517066\C,0,5.8454
 623748,-11.3132729864,1.1767116152\H,0,-0.4310036453,-13.1381083584,3.
 762366282\H,0,7.3495945672,-11.8342157796,-1.1421886425\C,0,4.78425018
 64,-12.3171208743,0.8441914726\C,0,2.7917909361,-14.0411287528,0.08384
 20582\H,0,7.0141403846,-9.4654436451,2.9212007474\H,0,1.9689944923,-14
 .6873172585,-0.2245371385\H,0,5.7598599313,-11.042073733,2.2403342713\
 H,0,6.8464773178,-11.7357094149,1.0087680201\C,0,5.0971961093,-13.6519
 446417,0.5884027221\C,0,4.0875009182,-14.5274434539,0.2079917704\H,0,6
 .1313272875,-13.9859144216,0.6796518094\H,0,4.3107501249,-15.576164868
 2,0.0028815827\O,0,3.4663894823,-9.8325877082,4.0247880694\C,0,1.76066
 15599,-9.9391538726,-4.9563122753\H,0,0.7526291144,-6.6406909719,1.012
 8137436\O,0,3.1184225695,-7.1164792621,-1.640700319\H,0,3.1016609549,-
 5.2065157733,0.8102631461\O,0,0.3680169568,-7.5676273444,-1.6201383958
 \H,0,3.8349112881,-6.539189866,-1.3604113351\C,0,1.9414080988,-8.85323
 01186,-3.9085387648\H,0,-0.5294935157,-6.1226465971,2.1400471797\C,0,0
 .2485857118,-5.7660521338,1.4451042423\H,0,3.9135369964,-4.7125440312,
 -0.6924445089\H,0,0.9923553097,-5.218681606,2.0419039982\C,0,3.4342801
 691,-4.3374970231,0.222576106\H,0,4.1990884426,-3.7973994847,0.8049258
 545\H,0,-0.413909443,-8.1662360487,-3.519391977\Ru,0,1.5251543333,-6.0
 843594742,-2.4594212462\H,0,-1.0500373314,-6.5814742766,-0.8461049985\
 N,0,1.4003301121,-7.5187671289,-4.2498848716\C,0,-0.0665662234,-7.5888
 27385,-4.3933782329\C,0,-0.4039998496,-4.8922292862,0.3759892884\H,0,-
 2.218164079,-6.0323831174,0.4110370366\H,0,1.5956425379,-3.2627174995,
 1.9534913165\C,0,-1.4890355972,-5.7002421149,-0.3480436253\C,0,2.29355
 10413,-3.3756914636,-0.1297463463\P,0,0.9291937413,-4.4658995039,-0.91
 25776443\H,0,-0.3644612615,-8.0826917673,-5.3339855117\C,0,1.882507268
 5,-2.6046869613,1.1239958059\H,0,1.6450740419,-5.930213108,-5.57610644
 28\H,0,3.9366934563,-6.6613943245,-4.5566581231\H,0,2.7519132932,-2.01
 54041847,1.4606746527\C,0,1.9971355908,-6.9691506693,-5.4844687875\H,0
 ,-1.9623002193,-4.0515306919,1.5753490751\C,0,2.5951910753,-4.88311476
 57,-3.3327544287\C,0,-1.0881537104,-3.6795160268,1.0155953498\H,0,3.09
 69190276,-2.7834832874,-2.1006121462\C,0,2.7983987968,-2.3442920269,-1
 .1417085558\H,0,-0.4581937197,-3.1360357203,1.7261262318\H,0,3.6906209
 48,-1.8545345352,-0.7169656925\C,0,-0.7220180211,-6.2461266166,-4.2828
 091583\N,0,-0.1712509195,-5.4102357351,-3.3812848211\C,0,3.513039855,-
 7.0150689082,-5.5061166042\H,0,-2.0428811332,-5.0837692261,-1.07441523
 37\H,0,1.5956868022,-7.5153678985,-6.3603606218\H,0,1.063635084,-1.897
 8837446,0.9297193288\H,0,3.8899852997,-8.0319594215,-5.6863540281\C,0,
 0.0027353349,-3.3604259811,-2.1151781887\H,0,3.8881688282,-6.368191081
 4,-6.3121823352\H,0,-1.4731491494,-2.9650237164,0.2713821708\C,0,-0.71
 88536437,-4.204554065,-3.1210335566\C,0,-1.8679302362,-5.8824694536,-4
 .9814830112\H,0,2.055059503,-1.5537054178,-1.3279162104\H,0,-2.2943921
 581,-6.5687554412,-5.7136989913\H,0,0.7794575152,-2.7850127866,-2.6439
 643917\H,0,-0.6758175384,-2.6387859209,-1.6390454137\C,0,-1.8768505733
 ,-3.8002786322,-3.7808426428\C,0,-2.4544041098,-4.6468479781,-4.721913
 9395\H,0,-2.3140018289,-2.8273452885,-3.5548370587\H,0,-3.3579595353,-
 4.3429686737,-5.2533481366\H,0,0.9702633262,-8.2034797324,-1.188527318
 6\O,0,3.2875711148,-4.1593143291,-3.9329704207\H,0,2.2036977559,-10.86
 83689193,-4.5673003019\H,0,2.2593140202,-9.7128121407,-5.911955993\H,0
 ,0.700788316,-10.1506809399,-5.167083942\H,0,1.4668784593,-9.146832320
 5,-2.9645777772\H,0,3.0022354478,-8.7097938686,-3.671635925\H,0,2.7407
 245885,-8.8658876193,-1.2837093662\\Version=ES64L-G16RevA.03\State=3-A
 \HF=-3109.9858443\S2=2.025526\S2-1=0.\S2A=2.000372\RMSD=9.712e-10\Dipo
 le=-0.5786158,-0.6763517,-2.9404341\Quadrupole=3.00077,31.4204995,-34.
 4212695,-31.3342524,19.3508048,-7.0448218\PG=C01 [X(C40H74N4O6P2Ru2)]\
 \@


 Ideas are like rabbits. You get a couple and learn
 how to handle them, and pretty soon you have a dozen.
                                    -- John Steinbeck
 Job cpu time:       5 days 13 hours 15 minutes 57.8 seconds.
 Elapsed time:       0 days  8 hours 20 minutes 29.7 seconds.
 File lengths (MBytes):  RWF=   7594 Int=      0 D2E=      0 Chk=    659 Scr=      1
 Normal termination of Gaussian 16 at Fri Mar  6 05:22:10 2020.
