 Entering Gaussian System, Link 0=g16
 Initial command:
 /cluster/chemistry/gaussian/g16/l1.exe "/scratch/js1212.757922/scratch/Gau-12221.inp" -scrdir="/scratch/js1212.757922/scratch/"
 Entering Link 1 = /cluster/chemistry/gaussian/g16/l1.exe PID=     12222.
  
 Copyright (c) 1988,1990,1992,1993,1995,1998,2003,2009,2016,
            Gaussian, Inc.  All Rights Reserved.
  
 This is part of the Gaussian(R) 16 program.  It is based on
 the Gaussian(R) 09 system (copyright 2009, Gaussian, Inc.),
 the Gaussian(R) 03 system (copyright 2003, Gaussian, Inc.),
 the Gaussian(R) 98 system (copyright 1998, Gaussian, Inc.),
 the Gaussian(R) 94 system (copyright 1995, Gaussian, Inc.),
 the Gaussian 92(TM) system (copyright 1992, Gaussian, Inc.),
 the Gaussian 90(TM) system (copyright 1990, Gaussian, Inc.),
 the Gaussian 88(TM) system (copyright 1988, Gaussian, Inc.),
 the Gaussian 86(TM) system (copyright 1986, Carnegie Mellon
 University), and the Gaussian 82(TM) system (copyright 1983,
 Carnegie Mellon University). Gaussian is a federally registered
 trademark of Gaussian, Inc.
  
 This software contains proprietary and confidential information,
 including trade secrets, belonging to Gaussian, Inc.
  
 This software is provided under written license and may be
 used, copied, transmitted, or stored only in accord with that
 written license.
  
 The following legend is applicable only to US Government
 contracts under FAR:
  
                    RESTRICTED RIGHTS LEGEND
  
 Use, reproduction and disclosure by the US Government is
 subject to restrictions as set forth in subparagraphs (a)
 and (c) of the Commercial Computer Software - Restricted
 Rights clause in FAR 52.227-19.
  
 Gaussian, Inc.
 340 Quinnipiac St., Bldg. 40, Wallingford CT 06492
  
  
 ---------------------------------------------------------------
 Warning -- This program may not be used in any manner that
 competes with the business of Gaussian, Inc. or will provide
 assistance to any competitor of Gaussian, Inc.  The licensee
 of this program is prohibited from giving any competitor of
 Gaussian, Inc. access to this program.  By using this program,
 the user acknowledges that Gaussian, Inc. is engaged in the
 business of creating and licensing software in the field of
 computational chemistry and represents and warrants to the
 licensee that it is not a competitor of Gaussian, Inc. and that
 it will not use this program in any manner prohibited above.
 ---------------------------------------------------------------
  

 Cite this work as:
 Gaussian 16, Revision A.03,
 M. J. Frisch, G. W. Trucks, H. B. Schlegel, G. E. Scuseria, 
 M. A. Robb, J. R. Cheeseman, G. Scalmani, V. Barone, 
 G. A. Petersson, H. Nakatsuji, X. Li, M. Caricato, A. V. Marenich, 
 J. Bloino, B. G. Janesko, R. Gomperts, B. Mennucci, H. P. Hratchian, 
 J. V. Ortiz, A. F. Izmaylov, J. L. Sonnenberg, D. Williams-Young, 
 F. Ding, F. Lipparini, F. Egidi, J. Goings, B. Peng, A. Petrone, 
 T. Henderson, D. Ranasinghe, V. G. Zakrzewski, J. Gao, N. Rega, 
 G. Zheng, W. Liang, M. Hada, M. Ehara, K. Toyota, R. Fukuda, 
 J. Hasegawa, M. Ishida, T. Nakajima, Y. Honda, O. Kitao, H. Nakai, 
 T. Vreven, K. Throssell, J. A. Montgomery, Jr., J. E. Peralta, 
 F. Ogliaro, M. J. Bearpark, J. J. Heyd, E. N. Brothers, K. N. Kudin, 
 V. N. Staroverov, T. A. Keith, R. Kobayashi, J. Normand, 
 K. Raghavachari, A. P. Rendell, J. C. Burant, S. S. Iyengar, 
 J. Tomasi, M. Cossi, J. M. Millam, M. Klene, C. Adamo, R. Cammi, 
 J. W. Ochterski, R. L. Martin, K. Morokuma, O. Farkas, 
 J. B. Foresman, and D. J. Fox, Gaussian, Inc., Wallingford CT, 2016.
 
 ******************************************
 Gaussian 16:  ES64L-G16RevA.03 25-Dec-2016
                24-Jul-2020 
 ******************************************
 %rwf=/scratch/js1212.757922/GAlt-Mono-T-0-OO-Scan-GPO.rwf
 %nosave
 %nprocshared=20
 Will use up to   20 processors via shared memory.
 %mem=3000MB
 %oldchk=/data/js1212/200624_g16/GAlt-Mono-T-0-GPOF.chk
 %chk=/scratch/js1212.757922/GAlt-Mono-T-0-OO-Scan-GPO.chk
 Copying data from "/data/js1212/200624_g16/GAlt-Mono-T-0-GPOF.chk" to current chk file "/scratch/js1212.757922/GAlt-Mono-T-0-OO-Scan-GPO.chk"
 IOpt=  2 FromEx=T IUOpen= 4 IOptOp= 5 NList=   0 IFRang= 0 IUIn= 4 IUOut= 2.
 ----------------------------------------------------------------------
 # opt=ModRedundant genecp pbe1pbe EmpiricalDispersion=GD3BJ NoSymm Geo
 m=AllCheck
 ----------------------------------------------------------------------
 1/18=120,19=15,26=3,29=7,38=1/1,3;
 2/9=110,12=2,15=1,40=1/2;
 3/5=7,11=2,14=-4,16=1,17=8,25=1,30=1,71=1,74=-13,124=41/1,2,3;
 4//1;
 5/5=2,38=5/2;
 6/7=2,8=2,9=2,10=2,28=1/1;
 7/30=1/1,2,3,16;
 1/18=20,19=15,26=3/3(2);
 2/9=110,15=1/2;
 99//99;
 2/9=110,15=1/2;
 3/5=7,6=1,11=2,14=-2,16=1,17=8,25=1,30=1,71=1,74=-13,82=7,124=41/1,2,3;
 4/5=5,16=3,69=1/1;
 5/5=2,38=5/2;
 7/30=1/1,2,3,16;
 1/18=20,19=15,26=3/3(-5);
 2/9=110,15=1/2;
 6/7=2,8=2,9=2,10=2,19=2,28=1/1;
 99/9=1/99;
 Structure from the checkpoint file:  "/scratch/js1212.757922/GAlt-Mono-T-0-OO-Scan-GPO.chk"
 -------------------
 Title Card Required
 -------------------
 Charge =  0 Multiplicity = 3
 Redundant internal coordinates found in file.  (old form).
 H,0,-3.4891278328,-3.2688567186,1.9434878654
 C,0,-3.2263167176,-2.6923017582,1.0443048643
 H,0,-3.9619060075,-2.946764942,0.265248692
 H,0,-2.2248934893,-3.0134139476,0.7164393851
 H,0,1.3576407426,-0.6314234554,2.7276553197
 O,0,-0.0489024962,-2.4744597632,0.3210415099
 H,0,4.1916750761,-1.8309132987,0.7630973562
 O,0,-0.4881420604,-0.1049527513,1.8798857738
 C,0,-3.213143701,-1.2201528709,1.3953092074
 H,0,2.7810177966,0.0595199698,3.5803206785
 H,0,-4.2134722829,-0.8812212509,1.7297580479
 C,0,2.42652405,-0.3796141145,2.6323550707
 H,0,2.6668051593,-2.7276255592,0.4825995231
 H,0,3.010501479,-1.2905188,2.4481255297
 H,0,-2.4916904302,-1.0375260435,2.2087362602
 C,0,3.5199807058,-2.2330727467,-0.0071377926
 H,0,4.0794591233,-2.9985375974,-0.5694679307
 H,0,-2.2850360673,1.0128781415,1.7508968386
 Ru,0,-0.3617561873,-0.6659544509,0.1054480926
 H,0,0.7101636167,1.6100003207,2.0175247323
 N,0,-2.7356975084,-0.3569008105,0.2967864643
 C,0,-2.7545182493,1.0411177112,0.7493212325
 C,0,2.5946725427,0.6669001374,1.5255687758
 H,0,2.1368932441,2.2673610099,2.8800661979
 H,0,4.8355016638,0.1134570551,-0.8612497499
 C,0,1.7675577638,1.9008576639,1.9076539009
 C,0,3.0371272665,-1.1603957163,-0.9865439534
 P,0,1.8334009431,-0.0257205657,-0.0647888079
 H,0,-3.7765331975,1.4504957081,0.8195942564
 C,0,4.213837627,-0.4007426403,-1.602850517
 H,0,-3.2258653962,-1.5344815937,-1.3506094767
 H,0,-5.4556956576,-1.0920485328,-0.2519095148
 H,0,4.8578083628,-1.1226377863,-2.1320111216
 C,0,-3.4666200928,-0.5325119867,-0.9693530142
 H,0,4.3730482156,1.568843262,2.3108777885
 C,0,-0.589322255,-0.9317810229,-1.8108997482
 C,0,4.0588300345,1.075522793,1.3761338494
 H,0,1.4543811092,-2.4778402351,-1.7002760804
 C,0,2.2725092313,-1.86704386,-2.1073314079
 H,0,4.7281455247,0.2179957537,1.2217957523
 H,0,2.9762591459,-2.5287561335,-2.6388696758
 C,0,-1.8666596938,1.9379512935,-0.0607699954
 N,0,-0.666746745,1.4173507831,-0.3642453453
 C,0,-4.9765640079,-0.3512636875,-0.9085201004
 H,0,1.8789667583,2.7257655667,1.18632529
 H,0,-3.0361265064,0.1814669084,-1.6886266721
 H,0,3.8806112713,0.3378806693,-2.3480391121
 H,0,-5.2691662245,0.6509256556,-0.560450473
 C,0,1.6155116287,1.4567266957,-1.188170172
 H,0,-5.3964661921,-0.4817299655,-1.9172408774
 H,0,4.2183244423,1.7978546956,0.5597415941
 C,0,0.3047285859,2.1520262951,-0.9286103675
 C,0,-2.1613731902,3.2602934432,-0.378658755
 H,0,1.8628596455,-1.1653638981,-2.8488826005
 H,0,-3.1432201956,3.6722592607,-0.1427350736
 H,0,1.6083056305,1.0485349249,-2.2134797139
 H,0,2.45339723,2.1674962654,-1.1279817894
 C,0,0.0759971004,3.4908464714,-1.2426379633
 C,0,-1.1749680562,4.0410247394,-0.9765261096
 H,0,0.86957353,4.0889255935,-1.6918453296
 H,0,-1.3782959851,5.0834319717,-1.2288036345
 O,0,-0.8186698209,-0.955272256,-2.9431169737
 Recover connectivity data from disk.
 The following ModRedundant input section has been read:
 B       6       8 S  10 -0.144                                                
 

 GradGradGradGradGradGradGradGradGradGradGradGradGradGradGradGradGradGrad
 Berny optimization.
 Initialization pass.
                           ----------------------------
                           !    Initial Parameters    !
                           ! (Angstroms and Degrees)  !
 --------------------------                            --------------------------
 ! Name  Definition              Value          Derivative Info.                !
 --------------------------------------------------------------------------------
 ! R1    R(1,2)                  1.1            estimate D2E/DX2                !
 ! R2    R(2,3)                  1.1013         estimate D2E/DX2                !
 ! R3    R(2,4)                  1.1016         estimate D2E/DX2                !
 ! R4    R(2,9)                  1.5135         estimate D2E/DX2                !
 ! R5    R(5,12)                 1.1023         estimate D2E/DX2                !
 ! R6    R(6,8)                  2.8701         Scan                            !
 ! R7    R(6,19)                 1.848          estimate D2E/DX2                !
 ! R8    R(7,16)                 1.0983         estimate D2E/DX2                !
 ! R9    R(8,19)                 1.8653         estimate D2E/DX2                !
 ! R10   R(9,11)                 1.1079         estimate D2E/DX2                !
 ! R11   R(9,15)                 1.1025         estimate D2E/DX2                !
 ! R12   R(9,21)                 1.4765         estimate D2E/DX2                !
 ! R13   R(10,12)                1.1032         estimate D2E/DX2                !
 ! R14   R(12,14)                1.0976         estimate D2E/DX2                !
 ! R15   R(12,23)                1.5325         estimate D2E/DX2                !
 ! R16   R(13,16)                1.1011         estimate D2E/DX2                !
 ! R17   R(16,17)                1.1023         estimate D2E/DX2                !
 ! R18   R(16,27)                1.5307         estimate D2E/DX2                !
 ! R19   R(18,22)                1.1065         estimate D2E/DX2                !
 ! R20   R(19,28)                2.2929         estimate D2E/DX2                !
 ! R21   R(19,36)                1.948          estimate D2E/DX2                !
 ! R22   R(19,43)                2.1573         estimate D2E/DX2                !
 ! R23   R(20,26)                1.1022         estimate D2E/DX2                !
 ! R24   R(21,22)                1.4696         estimate D2E/DX2                !
 ! R25   R(21,34)                1.4725         estimate D2E/DX2                !
 ! R26   R(22,29)                1.1032         estimate D2E/DX2                !
 ! R27   R(22,42)                1.4996         estimate D2E/DX2                !
 ! R28   R(23,26)                1.5339         estimate D2E/DX2                !
 ! R29   R(23,28)                1.8943         estimate D2E/DX2                !
 ! R30   R(23,37)                1.5274         estimate D2E/DX2                !
 ! R31   R(24,26)                1.1029         estimate D2E/DX2                !
 ! R32   R(25,30)                1.0958         estimate D2E/DX2                !
 ! R33   R(26,45)                1.1015         estimate D2E/DX2                !
 ! R34   R(27,28)                1.8937         estimate D2E/DX2                !
 ! R35   R(27,30)                1.5302         estimate D2E/DX2                !
 ! R36   R(27,39)                1.5298         estimate D2E/DX2                !
 ! R37   R(28,49)                1.8727         estimate D2E/DX2                !
 ! R38   R(30,33)                1.1027         estimate D2E/DX2                !
 ! R39   R(30,47)                1.1009         estimate D2E/DX2                !
 ! R40   R(31,34)                1.0988         estimate D2E/DX2                !
 ! R41   R(32,44)                1.0998         estimate D2E/DX2                !
 ! R42   R(34,44)                1.522          estimate D2E/DX2                !
 ! R43   R(34,46)                1.1011         estimate D2E/DX2                !
 ! R44   R(35,37)                1.1027         estimate D2E/DX2                !
 ! R45   R(36,62)                1.1555         estimate D2E/DX2                !
 ! R46   R(37,40)                1.0987         estimate D2E/DX2                !
 ! R47   R(37,51)                1.1017         estimate D2E/DX2                !
 ! R48   R(38,39)                1.0991         estimate D2E/DX2                !
 ! R49   R(39,41)                1.1026         estimate D2E/DX2                !
 ! R50   R(39,54)                1.1            estimate D2E/DX2                !
 ! R51   R(42,43)                1.3427         estimate D2E/DX2                !
 ! R52   R(42,53)                1.3916         estimate D2E/DX2                !
 ! R53   R(43,52)                1.3424         estimate D2E/DX2                !
 ! R54   R(44,48)                1.1005         estimate D2E/DX2                !
 ! R55   R(44,50)                1.1004         estimate D2E/DX2                !
 ! R56   R(49,52)                1.5063         estimate D2E/DX2                !
 ! R57   R(49,56)                1.1036         estimate D2E/DX2                !
 ! R58   R(49,57)                1.1004         estimate D2E/DX2                !
 ! R59   R(52,58)                1.394          estimate D2E/DX2                !
 ! R60   R(53,55)                1.0906         estimate D2E/DX2                !
 ! R61   R(53,59)                1.3928         estimate D2E/DX2                !
 ! R62   R(58,59)                1.3923         estimate D2E/DX2                !
 ! R63   R(58,60)                1.0905         estimate D2E/DX2                !
 ! R64   R(59,61)                1.0916         estimate D2E/DX2                !
 ! A1    A(1,2,3)              107.3121         estimate D2E/DX2                !
 ! A2    A(1,2,4)              107.921          estimate D2E/DX2                !
 ! A3    A(1,2,9)              108.8037         estimate D2E/DX2                !
 ! A4    A(3,2,4)              109.2273         estimate D2E/DX2                !
 ! A5    A(3,2,9)              113.2433         estimate D2E/DX2                !
 ! A6    A(4,2,9)              110.161          estimate D2E/DX2                !
 ! A7    A(2,9,11)             111.0836         estimate D2E/DX2                !
 ! A8    A(2,9,15)             109.7509         estimate D2E/DX2                !
 ! A9    A(2,9,21)             113.5141         estimate D2E/DX2                !
 ! A10   A(11,9,15)            108.5087         estimate D2E/DX2                !
 ! A11   A(11,9,21)            109.7381         estimate D2E/DX2                !
 ! A12   A(15,9,21)            103.9152         estimate D2E/DX2                !
 ! A13   A(5,12,10)            109.1613         estimate D2E/DX2                !
 ! A14   A(5,12,14)            109.9292         estimate D2E/DX2                !
 ! A15   A(5,12,23)            108.9564         estimate D2E/DX2                !
 ! A16   A(10,12,14)           107.6741         estimate D2E/DX2                !
 ! A17   A(10,12,23)           108.2703         estimate D2E/DX2                !
 ! A18   A(14,12,23)           112.7766         estimate D2E/DX2                !
 ! A19   A(7,16,13)            109.053          estimate D2E/DX2                !
 ! A20   A(7,16,17)            107.5553         estimate D2E/DX2                !
 ! A21   A(7,16,27)            112.6472         estimate D2E/DX2                !
 ! A22   A(13,16,17)           107.9551         estimate D2E/DX2                !
 ! A23   A(13,16,27)           110.789          estimate D2E/DX2                !
 ! A24   A(17,16,27)           108.6823         estimate D2E/DX2                !
 ! A25   A(6,19,8)             101.2343         estimate D2E/DX2                !
 ! A26   A(6,19,28)             96.8829         estimate D2E/DX2                !
 ! A27   A(6,19,36)             90.0573         estimate D2E/DX2                !
 ! A28   A(8,19,28)             92.953          estimate D2E/DX2                !
 ! A29   A(8,19,43)             84.6693         estimate D2E/DX2                !
 ! A30   A(28,19,36)            94.4105         estimate D2E/DX2                !
 ! A31   A(28,19,43)            81.3463         estimate D2E/DX2                !
 ! A32   A(36,19,43)            84.323          estimate D2E/DX2                !
 ! A33   A(9,21,22)            108.842          estimate D2E/DX2                !
 ! A34   A(9,21,34)            114.1745         estimate D2E/DX2                !
 ! A35   A(22,21,34)           111.832          estimate D2E/DX2                !
 ! A36   A(18,22,21)           104.4197         estimate D2E/DX2                !
 ! A37   A(18,22,29)           110.1745         estimate D2E/DX2                !
 ! A38   A(18,22,42)           104.6568         estimate D2E/DX2                !
 ! A39   A(21,22,29)           112.6127         estimate D2E/DX2                !
 ! A40   A(21,22,42)           113.2658         estimate D2E/DX2                !
 ! A41   A(29,22,42)           111.1601         estimate D2E/DX2                !
 ! A42   A(12,23,26)           108.0773         estimate D2E/DX2                !
 ! A43   A(12,23,28)           108.2132         estimate D2E/DX2                !
 ! A44   A(12,23,37)           111.0098         estimate D2E/DX2                !
 ! A45   A(26,23,28)           106.6524         estimate D2E/DX2                !
 ! A46   A(26,23,37)           109.0292         estimate D2E/DX2                !
 ! A47   A(28,23,37)           113.6343         estimate D2E/DX2                !
 ! A48   A(20,26,23)           109.2606         estimate D2E/DX2                !
 ! A49   A(20,26,24)           108.7287         estimate D2E/DX2                !
 ! A50   A(20,26,45)           111.0979         estimate D2E/DX2                !
 ! A51   A(23,26,24)           107.842          estimate D2E/DX2                !
 ! A52   A(23,26,45)           112.6324         estimate D2E/DX2                !
 ! A53   A(24,26,45)           107.1376         estimate D2E/DX2                !
 ! A54   A(16,27,28)           107.997          estimate D2E/DX2                !
 ! A55   A(16,27,30)           111.2858         estimate D2E/DX2                !
 ! A56   A(16,27,39)           107.6224         estimate D2E/DX2                !
 ! A57   A(28,27,30)           112.7922         estimate D2E/DX2                !
 ! A58   A(28,27,39)           108.4024         estimate D2E/DX2                !
 ! A59   A(30,27,39)           108.5782         estimate D2E/DX2                !
 ! A60   A(19,28,23)           115.1184         estimate D2E/DX2                !
 ! A61   A(19,28,27)           118.5141         estimate D2E/DX2                !
 ! A62   A(19,28,49)            98.8692         estimate D2E/DX2                !
 ! A63   A(23,28,27)           111.856          estimate D2E/DX2                !
 ! A64   A(23,28,49)           105.1254         estimate D2E/DX2                !
 ! A65   A(27,28,49)           104.8499         estimate D2E/DX2                !
 ! A66   A(25,30,27)           113.3673         estimate D2E/DX2                !
 ! A67   A(25,30,33)           107.4972         estimate D2E/DX2                !
 ! A68   A(25,30,47)           108.36           estimate D2E/DX2                !
 ! A69   A(27,30,33)           108.5042         estimate D2E/DX2                !
 ! A70   A(27,30,47)           111.8974         estimate D2E/DX2                !
 ! A71   A(33,30,47)           106.9294         estimate D2E/DX2                !
 ! A72   A(21,34,31)           107.3589         estimate D2E/DX2                !
 ! A73   A(21,34,44)           116.3521         estimate D2E/DX2                !
 ! A74   A(21,34,46)           106.8751         estimate D2E/DX2                !
 ! A75   A(31,34,44)           109.8674         estimate D2E/DX2                !
 ! A76   A(31,34,46)           106.1988         estimate D2E/DX2                !
 ! A77   A(44,34,46)           109.6795         estimate D2E/DX2                !
 ! A78   A(23,37,35)           108.0539         estimate D2E/DX2                !
 ! A79   A(23,37,40)           112.8856         estimate D2E/DX2                !
 ! A80   A(23,37,51)           112.7481         estimate D2E/DX2                !
 ! A81   A(35,37,40)           107.1378         estimate D2E/DX2                !
 ! A82   A(35,37,51)           107.0738         estimate D2E/DX2                !
 ! A83   A(40,37,51)           108.6295         estimate D2E/DX2                !
 ! A84   A(27,39,38)           110.9411         estimate D2E/DX2                !
 ! A85   A(27,39,41)           108.1441         estimate D2E/DX2                !
 ! A86   A(27,39,54)           112.6672         estimate D2E/DX2                !
 ! A87   A(38,39,41)           108.6705         estimate D2E/DX2                !
 ! A88   A(38,39,54)           109.0828         estimate D2E/DX2                !
 ! A89   A(41,39,54)           107.1894         estimate D2E/DX2                !
 ! A90   A(22,42,43)           114.7908         estimate D2E/DX2                !
 ! A91   A(22,42,53)           124.4926         estimate D2E/DX2                !
 ! A92   A(43,42,53)           120.4015         estimate D2E/DX2                !
 ! A93   A(19,43,42)           116.8437         estimate D2E/DX2                !
 ! A94   A(19,43,52)           121.1812         estimate D2E/DX2                !
 ! A95   A(42,43,52)           121.9746         estimate D2E/DX2                !
 ! A96   A(32,44,34)           112.078          estimate D2E/DX2                !
 ! A97   A(32,44,48)           107.983          estimate D2E/DX2                !
 ! A98   A(32,44,50)           107.5297         estimate D2E/DX2                !
 ! A99   A(34,44,48)           112.6348         estimate D2E/DX2                !
 ! A100  A(34,44,50)           109.1361         estimate D2E/DX2                !
 ! A101  A(48,44,50)           107.244          estimate D2E/DX2                !
 ! A102  A(28,49,52)           111.3015         estimate D2E/DX2                !
 ! A103  A(28,49,56)           105.3835         estimate D2E/DX2                !
 ! A104  A(28,49,57)           112.9487         estimate D2E/DX2                !
 ! A105  A(52,49,56)           108.974          estimate D2E/DX2                !
 ! A106  A(52,49,57)           110.795          estimate D2E/DX2                !
 ! A107  A(56,49,57)           107.1394         estimate D2E/DX2                !
 ! A108  A(43,52,49)           116.7162         estimate D2E/DX2                !
 ! A109  A(43,52,58)           120.1039         estimate D2E/DX2                !
 ! A110  A(49,52,58)           123.1798         estimate D2E/DX2                !
 ! A111  A(42,53,55)           120.0131         estimate D2E/DX2                !
 ! A112  A(42,53,59)           118.7322         estimate D2E/DX2                !
 ! A113  A(55,53,59)           121.2451         estimate D2E/DX2                !
 ! A114  A(52,58,59)           118.939          estimate D2E/DX2                !
 ! A115  A(52,58,60)           120.0063         estimate D2E/DX2                !
 ! A116  A(59,58,60)           121.0545         estimate D2E/DX2                !
 ! A117  A(53,59,58)           119.7926         estimate D2E/DX2                !
 ! A118  A(53,59,61)           120.1696         estimate D2E/DX2                !
 ! A119  A(58,59,61)           120.036          estimate D2E/DX2                !
 ! A120  L(6,19,43,8,-1)       185.9036         estimate D2E/DX2                !
 ! A121  L(8,19,36,6,-1)       191.2916         estimate D2E/DX2                !
 ! A122  L(19,36,62,3,-1)      179.3311         estimate D2E/DX2                !
 ! A123  L(6,19,43,8,-2)       178.637          estimate D2E/DX2                !
 ! A124  L(8,19,36,6,-2)       171.1411         estimate D2E/DX2                !
 ! A125  L(19,36,62,3,-2)      171.4806         estimate D2E/DX2                !
 ! D1    D(1,2,9,11)           -61.7476         estimate D2E/DX2                !
 ! D2    D(1,2,9,15)            58.2471         estimate D2E/DX2                !
 ! D3    D(1,2,9,21)           174.0249         estimate D2E/DX2                !
 ! D4    D(3,2,9,11)            57.4855         estimate D2E/DX2                !
 ! D5    D(3,2,9,15)           177.4802         estimate D2E/DX2                !
 ! D6    D(3,2,9,21)           -66.742          estimate D2E/DX2                !
 ! D7    D(4,2,9,11)          -179.8655         estimate D2E/DX2                !
 ! D8    D(4,2,9,15)           -59.8708         estimate D2E/DX2                !
 ! D9    D(4,2,9,21)            55.907          estimate D2E/DX2                !
 ! D10   D(2,9,21,22)         -179.5523         estimate D2E/DX2                !
 ! D11   D(2,9,21,34)           54.7227         estimate D2E/DX2                !
 ! D12   D(11,9,21,22)          55.4942         estimate D2E/DX2                !
 ! D13   D(11,9,21,34)         -70.2309         estimate D2E/DX2                !
 ! D14   D(15,9,21,22)         -60.3774         estimate D2E/DX2                !
 ! D15   D(15,9,21,34)         173.8975         estimate D2E/DX2                !
 ! D16   D(5,12,23,26)          59.1191         estimate D2E/DX2                !
 ! D17   D(5,12,23,28)         -56.0154         estimate D2E/DX2                !
 ! D18   D(5,12,23,37)         178.6417         estimate D2E/DX2                !
 ! D19   D(10,12,23,26)        -59.4926         estimate D2E/DX2                !
 ! D20   D(10,12,23,28)       -174.6271         estimate D2E/DX2                !
 ! D21   D(10,12,23,37)         60.03           estimate D2E/DX2                !
 ! D22   D(14,12,23,26)       -178.53           estimate D2E/DX2                !
 ! D23   D(14,12,23,28)         66.3356         estimate D2E/DX2                !
 ! D24   D(14,12,23,37)        -59.0073         estimate D2E/DX2                !
 ! D25   D(7,16,27,28)         -70.6391         estimate D2E/DX2                !
 ! D26   D(7,16,27,30)          53.6734         estimate D2E/DX2                !
 ! D27   D(7,16,27,39)         172.5232         estimate D2E/DX2                !
 ! D28   D(13,16,27,28)         51.8234         estimate D2E/DX2                !
 ! D29   D(13,16,27,30)        176.1358         estimate D2E/DX2                !
 ! D30   D(13,16,27,39)        -65.0143         estimate D2E/DX2                !
 ! D31   D(17,16,27,28)        170.2773         estimate D2E/DX2                !
 ! D32   D(17,16,27,30)        -65.4103         estimate D2E/DX2                !
 ! D33   D(17,16,27,39)         53.4396         estimate D2E/DX2                !
 ! D34   D(6,19,28,23)         -99.0224         estimate D2E/DX2                !
 ! D35   D(6,19,28,27)          37.2484         estimate D2E/DX2                !
 ! D36   D(6,19,28,49)         149.5804         estimate D2E/DX2                !
 ! D37   D(8,19,28,23)           2.6738         estimate D2E/DX2                !
 ! D38   D(8,19,28,27)         138.9447         estimate D2E/DX2                !
 ! D39   D(8,19,28,49)        -108.7233         estimate D2E/DX2                !
 ! D40   D(36,19,28,23)        170.3862         estimate D2E/DX2                !
 ! D41   D(36,19,28,27)        -53.3429         estimate D2E/DX2                !
 ! D42   D(36,19,28,49)         58.9891         estimate D2E/DX2                !
 ! D43   D(43,19,28,23)         86.8223         estimate D2E/DX2                !
 ! D44   D(43,19,28,27)       -136.9068         estimate D2E/DX2                !
 ! D45   D(43,19,28,49)        -24.5748         estimate D2E/DX2                !
 ! D46   D(8,19,43,42)         -66.783          estimate D2E/DX2                !
 ! D47   D(8,19,43,52)         112.9734         estimate D2E/DX2                !
 ! D48   D(28,19,43,42)       -160.5982         estimate D2E/DX2                !
 ! D49   D(28,19,43,52)         19.1582         estimate D2E/DX2                !
 ! D50   D(36,19,43,42)        104.0483         estimate D2E/DX2                !
 ! D51   D(36,19,43,52)        -76.1953         estimate D2E/DX2                !
 ! D52   D(9,21,22,18)          46.4425         estimate D2E/DX2                !
 ! D53   D(9,21,22,29)         -73.0856         estimate D2E/DX2                !
 ! D54   D(9,21,22,42)         159.7046         estimate D2E/DX2                !
 ! D55   D(34,21,22,18)        173.5166         estimate D2E/DX2                !
 ! D56   D(34,21,22,29)         53.9886         estimate D2E/DX2                !
 ! D57   D(34,21,22,42)        -73.2213         estimate D2E/DX2                !
 ! D58   D(9,21,34,31)         -67.9898         estimate D2E/DX2                !
 ! D59   D(9,21,34,44)          55.5283         estimate D2E/DX2                !
 ! D60   D(9,21,34,46)         178.4157         estimate D2E/DX2                !
 ! D61   D(22,21,34,31)        167.8721         estimate D2E/DX2                !
 ! D62   D(22,21,34,44)        -68.6098         estimate D2E/DX2                !
 ! D63   D(22,21,34,46)         54.2776         estimate D2E/DX2                !
 ! D64   D(18,22,42,43)         70.6805         estimate D2E/DX2                !
 ! D65   D(18,22,42,53)       -102.8689         estimate D2E/DX2                !
 ! D66   D(21,22,42,43)        -42.4381         estimate D2E/DX2                !
 ! D67   D(21,22,42,53)        144.0125         estimate D2E/DX2                !
 ! D68   D(29,22,42,43)       -170.406          estimate D2E/DX2                !
 ! D69   D(29,22,42,53)         16.0446         estimate D2E/DX2                !
 ! D70   D(12,23,26,20)        -59.1766         estimate D2E/DX2                !
 ! D71   D(12,23,26,24)         58.8434         estimate D2E/DX2                !
 ! D72   D(12,23,26,45)        176.8504         estimate D2E/DX2                !
 ! D73   D(28,23,26,20)         56.9788         estimate D2E/DX2                !
 ! D74   D(28,23,26,24)        174.9988         estimate D2E/DX2                !
 ! D75   D(28,23,26,45)        -66.9942         estimate D2E/DX2                !
 ! D76   D(37,23,26,20)       -179.942          estimate D2E/DX2                !
 ! D77   D(37,23,26,24)        -61.9219         estimate D2E/DX2                !
 ! D78   D(37,23,26,45)         56.085          estimate D2E/DX2                !
 ! D79   D(12,23,28,19)         55.9136         estimate D2E/DX2                !
 ! D80   D(12,23,28,27)        -83.2091         estimate D2E/DX2                !
 ! D81   D(12,23,28,49)        163.5584         estimate D2E/DX2                !
 ! D82   D(26,23,28,19)        -60.1509         estimate D2E/DX2                !
 ! D83   D(26,23,28,27)        160.7263         estimate D2E/DX2                !
 ! D84   D(26,23,28,49)         47.4939         estimate D2E/DX2                !
 ! D85   D(37,23,28,19)        179.692          estimate D2E/DX2                !
 ! D86   D(37,23,28,27)         40.5692         estimate D2E/DX2                !
 ! D87   D(37,23,28,49)        -72.6632         estimate D2E/DX2                !
 ! D88   D(12,23,37,35)        -64.1802         estimate D2E/DX2                !
 ! D89   D(12,23,37,40)         54.1144         estimate D2E/DX2                !
 ! D90   D(12,23,37,51)        177.6862         estimate D2E/DX2                !
 ! D91   D(26,23,37,35)         54.7715         estimate D2E/DX2                !
 ! D92   D(26,23,37,40)        173.0662         estimate D2E/DX2                !
 ! D93   D(26,23,37,51)        -63.362          estimate D2E/DX2                !
 ! D94   D(28,23,37,35)        173.5753         estimate D2E/DX2                !
 ! D95   D(28,23,37,40)        -68.13           estimate D2E/DX2                !
 ! D96   D(28,23,37,51)         55.4418         estimate D2E/DX2                !
 ! D97   D(16,27,28,19)        -83.9091         estimate D2E/DX2                !
 ! D98   D(16,27,28,23)         53.6871         estimate D2E/DX2                !
 ! D99   D(16,27,28,49)        167.0907         estimate D2E/DX2                !
 ! D100  D(30,27,28,19)        152.6874         estimate D2E/DX2                !
 ! D101  D(30,27,28,23)        -69.7163         estimate D2E/DX2                !
 ! D102  D(30,27,28,49)         43.6873         estimate D2E/DX2                !
 ! D103  D(39,27,28,19)         32.4218         estimate D2E/DX2                !
 ! D104  D(39,27,28,23)        170.018          estimate D2E/DX2                !
 ! D105  D(39,27,28,49)        -76.5784         estimate D2E/DX2                !
 ! D106  D(16,27,30,25)        -60.0431         estimate D2E/DX2                !
 ! D107  D(16,27,30,33)         59.296          estimate D2E/DX2                !
 ! D108  D(16,27,30,47)        177.0364         estimate D2E/DX2                !
 ! D109  D(28,27,30,25)         61.5163         estimate D2E/DX2                !
 ! D110  D(28,27,30,33)       -179.1447         estimate D2E/DX2                !
 ! D111  D(28,27,30,47)        -61.4042         estimate D2E/DX2                !
 ! D112  D(39,27,30,25)       -178.3191         estimate D2E/DX2                !
 ! D113  D(39,27,30,33)        -58.98           estimate D2E/DX2                !
 ! D114  D(39,27,30,47)         58.7605         estimate D2E/DX2                !
 ! D115  D(16,27,39,38)         55.8413         estimate D2E/DX2                !
 ! D116  D(16,27,39,41)        -63.2438         estimate D2E/DX2                !
 ! D117  D(16,27,39,54)        178.4692         estimate D2E/DX2                !
 ! D118  D(28,27,39,38)        -60.7315         estimate D2E/DX2                !
 ! D119  D(28,27,39,41)       -179.8166         estimate D2E/DX2                !
 ! D120  D(28,27,39,54)         61.8965         estimate D2E/DX2                !
 ! D121  D(30,27,39,38)        176.4119         estimate D2E/DX2                !
 ! D122  D(30,27,39,41)         57.3269         estimate D2E/DX2                !
 ! D123  D(30,27,39,54)        -60.9601         estimate D2E/DX2                !
 ! D124  D(19,28,49,52)         32.8889         estimate D2E/DX2                !
 ! D125  D(19,28,49,56)        -85.0953         estimate D2E/DX2                !
 ! D126  D(19,28,49,57)        158.2626         estimate D2E/DX2                !
 ! D127  D(23,28,49,52)        -86.2693         estimate D2E/DX2                !
 ! D128  D(23,28,49,56)        155.7465         estimate D2E/DX2                !
 ! D129  D(23,28,49,57)         39.1044         estimate D2E/DX2                !
 ! D130  D(27,28,49,52)        155.6557         estimate D2E/DX2                !
 ! D131  D(27,28,49,56)         37.6715         estimate D2E/DX2                !
 ! D132  D(27,28,49,57)        -78.9706         estimate D2E/DX2                !
 ! D133  D(21,34,44,32)        -62.4839         estimate D2E/DX2                !
 ! D134  D(21,34,44,48)         59.5281         estimate D2E/DX2                !
 ! D135  D(21,34,44,50)        178.5177         estimate D2E/DX2                !
 ! D136  D(31,34,44,32)         59.7263         estimate D2E/DX2                !
 ! D137  D(31,34,44,48)       -178.2617         estimate D2E/DX2                !
 ! D138  D(31,34,44,50)        -59.2721         estimate D2E/DX2                !
 ! D139  D(46,34,44,32)        176.1025         estimate D2E/DX2                !
 ! D140  D(46,34,44,48)        -61.8855         estimate D2E/DX2                !
 ! D141  D(46,34,44,50)         57.1041         estimate D2E/DX2                !
 ! D142  D(22,42,43,19)          8.6558         estimate D2E/DX2                !
 ! D143  D(22,42,43,52)       -171.0985         estimate D2E/DX2                !
 ! D144  D(53,42,43,19)       -177.5072         estimate D2E/DX2                !
 ! D145  D(53,42,43,52)          2.7385         estimate D2E/DX2                !
 ! D146  D(22,42,53,55)         -7.709          estimate D2E/DX2                !
 ! D147  D(22,42,53,59)        171.1762         estimate D2E/DX2                !
 ! D148  D(43,42,53,55)        179.0823         estimate D2E/DX2                !
 ! D149  D(43,42,53,59)         -2.0326         estimate D2E/DX2                !
 ! D150  D(19,43,52,49)         -1.1759         estimate D2E/DX2                !
 ! D151  D(19,43,52,58)        178.9534         estimate D2E/DX2                !
 ! D152  D(42,43,52,49)        178.5678         estimate D2E/DX2                !
 ! D153  D(42,43,52,58)         -1.3028         estimate D2E/DX2                !
 ! D154  D(28,49,52,43)        -23.2663         estimate D2E/DX2                !
 ! D155  D(28,49,52,58)        156.6            estimate D2E/DX2                !
 ! D156  D(56,49,52,43)         92.5286         estimate D2E/DX2                !
 ! D157  D(56,49,52,58)        -87.6052         estimate D2E/DX2                !
 ! D158  D(57,49,52,43)       -149.8313         estimate D2E/DX2                !
 ! D159  D(57,49,52,58)         30.0349         estimate D2E/DX2                !
 ! D160  D(43,52,58,59)         -0.7815         estimate D2E/DX2                !
 ! D161  D(43,52,58,60)        179.3835         estimate D2E/DX2                !
 ! D162  D(49,52,58,59)        179.3566         estimate D2E/DX2                !
 ! D163  D(49,52,58,60)         -0.4784         estimate D2E/DX2                !
 ! D164  D(42,53,59,58)         -0.0203         estimate D2E/DX2                !
 ! D165  D(42,53,59,61)       -179.5305         estimate D2E/DX2                !
 ! D166  D(55,53,59,58)        178.8506         estimate D2E/DX2                !
 ! D167  D(55,53,59,61)         -0.6597         estimate D2E/DX2                !
 ! D168  D(52,58,59,53)          1.3956         estimate D2E/DX2                !
 ! D169  D(52,58,59,61)       -179.0935         estimate D2E/DX2                !
 ! D170  D(60,58,59,53)       -178.7712         estimate D2E/DX2                !
 ! D171  D(60,58,59,61)          0.7397         estimate D2E/DX2                !
 --------------------------------------------------------------------------------
 Trust Radius=3.00D-01 FncErr=1.00D-07 GrdErr=1.00D-06 EigMax=2.50D+02 EigMin=1.00D-04
 Number of optimizations in scan=  11
 Number of steps in this run=    370 maximum allowed number of steps=    372.
 GradGradGradGradGradGradGradGradGradGradGradGradGradGradGradGradGradGrad

 Symmetry turned off by external request.
 Stoichiometry    C20H35N2O3PRu(3)
 Framework group  C1[X(C20H35N2O3PRu)]
 Deg. of freedom   180
 Full point group                 C1      NOp   1
                          Input orientation:                          
 ---------------------------------------------------------------------
 Center     Atomic      Atomic             Coordinates (Angstroms)
 Number     Number       Type             X           Y           Z
 ---------------------------------------------------------------------
      1          1           0       -3.489128   -3.268857    1.943488
      2          6           0       -3.226317   -2.692302    1.044305
      3          1           0       -3.961906   -2.946765    0.265249
      4          1           0       -2.224893   -3.013414    0.716439
      5          1           0        1.357641   -0.631423    2.727655
      6          8           0       -0.048902   -2.474460    0.321042
      7          1           0        4.191675   -1.830913    0.763097
      8          8           0       -0.488142   -0.104953    1.879886
      9          6           0       -3.213144   -1.220153    1.395309
     10          1           0        2.781018    0.059520    3.580321
     11          1           0       -4.213472   -0.881221    1.729758
     12          6           0        2.426524   -0.379614    2.632355
     13          1           0        2.666805   -2.727626    0.482600
     14          1           0        3.010501   -1.290519    2.448126
     15          1           0       -2.491690   -1.037526    2.208736
     16          6           0        3.519981   -2.233073   -0.007138
     17          1           0        4.079459   -2.998538   -0.569468
     18          1           0       -2.285036    1.012878    1.750897
     19         44           0       -0.361756   -0.665954    0.105448
     20          1           0        0.710164    1.610000    2.017525
     21          7           0       -2.735698   -0.356901    0.296786
     22          6           0       -2.754518    1.041118    0.749321
     23          6           0        2.594673    0.666900    1.525569
     24          1           0        2.136893    2.267361    2.880066
     25          1           0        4.835502    0.113457   -0.861250
     26          6           0        1.767558    1.900858    1.907654
     27          6           0        3.037127   -1.160396   -0.986544
     28         15           0        1.833401   -0.025721   -0.064789
     29          1           0       -3.776533    1.450496    0.819594
     30          6           0        4.213838   -0.400743   -1.602851
     31          1           0       -3.225865   -1.534482   -1.350609
     32          1           0       -5.455696   -1.092049   -0.251910
     33          1           0        4.857808   -1.122638   -2.132011
     34          6           0       -3.466620   -0.532512   -0.969353
     35          1           0        4.373048    1.568843    2.310878
     36          6           0       -0.589322   -0.931781   -1.810900
     37          6           0        4.058830    1.075523    1.376134
     38          1           0        1.454381   -2.477840   -1.700276
     39          6           0        2.272509   -1.867044   -2.107331
     40          1           0        4.728146    0.217996    1.221796
     41          1           0        2.976259   -2.528756   -2.638870
     42          6           0       -1.866660    1.937951   -0.060770
     43          7           0       -0.666747    1.417351   -0.364245
     44          6           0       -4.976564   -0.351264   -0.908520
     45          1           0        1.878967    2.725766    1.186325
     46          1           0       -3.036127    0.181467   -1.688627
     47          1           0        3.880611    0.337881   -2.348039
     48          1           0       -5.269166    0.650926   -0.560450
     49          6           0        1.615512    1.456727   -1.188170
     50          1           0       -5.396466   -0.481730   -1.917241
     51          1           0        4.218324    1.797855    0.559742
     52          6           0        0.304729    2.152026   -0.928610
     53          6           0       -2.161373    3.260293   -0.378659
     54          1           0        1.862860   -1.165364   -2.848883
     55          1           0       -3.143220    3.672259   -0.142735
     56          1           0        1.608306    1.048535   -2.213480
     57          1           0        2.453397    2.167496   -1.127982
     58          6           0        0.075997    3.490846   -1.242638
     59          6           0       -1.174968    4.041025   -0.976526
     60          1           0        0.869574    4.088926   -1.691845
     61          1           0       -1.378296    5.083432   -1.228804
     62          8           0       -0.818670   -0.955272   -2.943117
 ---------------------------------------------------------------------
 Rotational constants (GHZ):           0.2520052           0.1552340           0.1340440
 General basis read from cards:  (5D, 7F)
 ======================================================================================================
                                       Pseudopotential Parameters
 ======================================================================================================
  Center     Atomic      Valence      Angular      Power
  Number     Number     Electrons     Momentum     of R      Exponent        Coefficient   SO-Coeffient
 ======================================================================================================
    1          1
                                   No pseudopotential on this center.
    2          6
                                   No pseudopotential on this center.
    3          1
                                   No pseudopotential on this center.
    4          1
                                   No pseudopotential on this center.
    5          1
                                   No pseudopotential on this center.
    6          8
                                   No pseudopotential on this center.
    7          1
                                   No pseudopotential on this center.
    8          8
                                   No pseudopotential on this center.
    9          6
                                   No pseudopotential on this center.
   10          1
                                   No pseudopotential on this center.
   11          1
                                   No pseudopotential on this center.
   12          6
                                   No pseudopotential on this center.
   13          1
                                   No pseudopotential on this center.
   14          1
                                   No pseudopotential on this center.
   15          1
                                   No pseudopotential on this center.
   16          6
                                   No pseudopotential on this center.
   17          1
                                   No pseudopotential on this center.
   18          1
                                   No pseudopotential on this center.
   19         44           16
                                      G and up 
                                                     2        1.0000000        0.00000000    0.00000000
                                      S - G
                                                     2       11.1052690      209.82297100    0.00000000
                                                     2        5.4147450       30.65472600    0.00000000
                                      P - G
                                                     2        9.7712710      146.33618200    0.00000000
                                                     2        5.0739910       24.12787700    0.00000000
                                      D - G
                                                     2        7.6714230       67.51589700    0.00000000
                                                     2        4.1365650        9.87010400    0.00000000
                                      F - G
                                                     2       11.3600000      -28.34061600    0.00000000
                                                     2        5.6800000       -4.94462900    0.00000000
   20          1
                                   No pseudopotential on this center.
   21          7
                                   No pseudopotential on this center.
   22          6
                                   No pseudopotential on this center.
   23          6
                                   No pseudopotential on this center.
   24          1
                                   No pseudopotential on this center.
   25          1
                                   No pseudopotential on this center.
   26          6
                                   No pseudopotential on this center.
   27          6
                                   No pseudopotential on this center.
   28         15
                                   No pseudopotential on this center.
   29          1
                                   No pseudopotential on this center.
   30          6
                                   No pseudopotential on this center.
   31          1
                                   No pseudopotential on this center.
   32          1
                                   No pseudopotential on this center.
   33          1
                                   No pseudopotential on this center.
   34          6
                                   No pseudopotential on this center.
   35          1
                                   No pseudopotential on this center.
   36          6
                                   No pseudopotential on this center.
   37          6
                                   No pseudopotential on this center.
   38          1
                                   No pseudopotential on this center.
   39          6
                                   No pseudopotential on this center.
   40          1
                                   No pseudopotential on this center.
   41          1
                                   No pseudopotential on this center.
   42          6
                                   No pseudopotential on this center.
   43          7
                                   No pseudopotential on this center.
   44          6
                                   No pseudopotential on this center.
   45          1
                                   No pseudopotential on this center.
   46          1
                                   No pseudopotential on this center.
   47          1
                                   No pseudopotential on this center.
   48          1
                                   No pseudopotential on this center.
   49          6
                                   No pseudopotential on this center.
   50          1
                                   No pseudopotential on this center.
   51          1
                                   No pseudopotential on this center.
   52          6
                                   No pseudopotential on this center.
   53          6
                                   No pseudopotential on this center.
   54          1
                                   No pseudopotential on this center.
   55          1
                                   No pseudopotential on this center.
   56          1
                                   No pseudopotential on this center.
   57          1
                                   No pseudopotential on this center.
   58          6
                                   No pseudopotential on this center.
   59          6
                                   No pseudopotential on this center.
   60          1
                                   No pseudopotential on this center.
   61          1
                                   No pseudopotential on this center.
   62          8
                                   No pseudopotential on this center.
 ======================================================================================================
   579 basis functions,  1206 primitive gaussians,   608 cartesian basis functions
   113 alpha electrons      111 beta electrons
       nuclear repulsion energy      3444.0787930074 Hartrees.
 NAtoms=   62 NActive=   62 NUniq=   62 SFac= 1.00D+00 NAtFMM=   60 NAOKFM=T Big=T
 Integral buffers will be    131072 words long.
 Raffenetti 2 integral format.
 Two-electron integral symmetry is turned off.
 Nuclear repulsion after empirical dispersion term =     3443.9843715801 Hartrees.
 One-electron integrals computed using PRISM.
   1 Symmetry operations used in ECPInt.
 ECPInt:  NShTT=   38503 NPrTT=  272579 LenC2=   35744 LenP2D=  137628.
 LDataN:  DoStor=T MaxTD1= 6 Len=  172
 Number of processors reduced to  16 by ecpmxn.
 NBasis=   579 RedAO= T EigKep=  4.39D-04  NBF=   579
 NBsUse=   579 1.00D-06 EigRej= -1.00D+00 NBFU=   579
 Defaulting to unpruned grid for atomic number  44.
 ExpMin= 1.60D-02 ExpMax= 9.48D+04 ExpMxC= 3.24D+03 IAcc=3 IRadAn=         5 AccDes= 0.00D+00
 Harris functional with IExCor= 1009 and IRadAn=       5 diagonalized for initial guess.
 HarFok:  IExCor= 1009 AccDes= 0.00D+00 IRadAn=         5 IDoV= 1 UseB2=F ITyADJ=14
 ICtDFT=  3500011 ScaDFX=  1.000000  1.000000  1.000000  1.000000
 Defaulting to unpruned grid for atomic number  44.
 FoFCou: FMM=F IPFlag=           0 FMFlag=      100000 FMFlg1=        2001
         NFxFlg=           0 DoJE=T BraDBF=F KetDBF=T FulRan=T
         wScrn=  0.000000 ICntrl=       500 IOpCl=  0 I1Cent=   200000004 NGrid=           0
         NMat0=    1 NMatS0=      1 NMatT0=    0 NMatD0=    1 NMtDS0=    0 NMtDT0=    0
 Symmetry not used in FoFCou.
 Initial guess <Sx>= 0.0000 <Sy>= 0.0000 <Sz>= 1.0000 <S**2>= 2.0000 S= 1.0000
 Requested convergence on RMS density matrix=1.00D-08 within 128 cycles.
 Requested convergence on MAX density matrix=1.00D-06.
 Requested convergence on             energy=1.00D-06.
 No special actions if energy rises.
 Defaulting to unpruned grid for atomic number  44.
 Defaulting to unpruned grid for atomic number  44.
 Defaulting to unpruned grid for atomic number  44.
 Defaulting to unpruned grid for atomic number  44.
 Defaulting to unpruned grid for atomic number  44.
 Defaulting to unpruned grid for atomic number  44.
 Defaulting to unpruned grid for atomic number  44.
 Defaulting to unpruned grid for atomic number  44.
 Defaulting to unpruned grid for atomic number  44.
 Defaulting to unpruned grid for atomic number  44.
 Defaulting to unpruned grid for atomic number  44.
 Defaulting to unpruned grid for atomic number  44.
 Defaulting to unpruned grid for atomic number  44.
 Defaulting to unpruned grid for atomic number  44.
 Defaulting to unpruned grid for atomic number  44.
 Defaulting to unpruned grid for atomic number  44.
 Defaulting to unpruned grid for atomic number  44.
 Defaulting to unpruned grid for atomic number  44.
 Defaulting to unpruned grid for atomic number  44.
 Defaulting to unpruned grid for atomic number  44.
 EnCoef did     3 forward-backward iterations
 EnCoef did     2 forward-backward iterations
 EnCoef did     2 forward-backward iterations
 EnCoef did     3 forward-backward iterations
 EnCoef did     7 forward-backward iterations
 Restarting incremental Fock formation.
 SCF Done:  E(UPBE1PBE) =  -1553.33688165     A.U. after   29 cycles
            NFock= 29  Conv=0.72D-08     -V/T= 2.0467
 <Sx>= 0.0000 <Sy>= 0.0000 <Sz>= 1.0000 <S**2>= 2.0296 S= 1.0098
 <L.S>= 0.000000000000E+00
 Annihilation of the first spin contaminant:
 S**2 before annihilation     2.0296,   after     2.0005

 **********************************************************************

            Population analysis using the SCF density.

 **********************************************************************

 Alpha  occ. eigenvalues --  -77.26807 -19.27662 -19.17552 -19.12046 -14.44547
 Alpha  occ. eigenvalues --  -14.42753 -10.32440 -10.31286 -10.30369 -10.27934
 Alpha  occ. eigenvalues --  -10.26992 -10.26849 -10.26750 -10.26737 -10.26699
 Alpha  occ. eigenvalues --  -10.26222 -10.25768 -10.24221 -10.23686 -10.23236
 Alpha  occ. eigenvalues --  -10.23218 -10.22611 -10.22282 -10.20971 -10.20529
 Alpha  occ. eigenvalues --  -10.20102  -6.64782  -4.78440  -4.78307  -4.78118
 Alpha  occ. eigenvalues --   -3.07788  -1.91793  -1.90856  -1.90047  -1.14229
 Alpha  occ. eigenvalues --   -1.01886  -0.96903  -0.89242  -0.86390  -0.85569
 Alpha  occ. eigenvalues --   -0.84814  -0.84255  -0.82994  -0.78417  -0.77641
 Alpha  occ. eigenvalues --   -0.75399  -0.71802  -0.71261  -0.70736  -0.70285
 Alpha  occ. eigenvalues --   -0.68828  -0.67397  -0.66780  -0.64047  -0.63477
 Alpha  occ. eigenvalues --   -0.57770  -0.57097  -0.56703  -0.54978  -0.54239
 Alpha  occ. eigenvalues --   -0.52614  -0.51310  -0.50672  -0.49649  -0.49050
 Alpha  occ. eigenvalues --   -0.47509  -0.46773  -0.46659  -0.46309  -0.45882
 Alpha  occ. eigenvalues --   -0.45426  -0.45190  -0.45028  -0.44886  -0.44146
 Alpha  occ. eigenvalues --   -0.43904  -0.43623  -0.42846  -0.42478  -0.41373
 Alpha  occ. eigenvalues --   -0.41168  -0.40369  -0.39943  -0.39402  -0.38871
 Alpha  occ. eigenvalues --   -0.38395  -0.38246  -0.37969  -0.37584  -0.36878
 Alpha  occ. eigenvalues --   -0.36619  -0.36256  -0.35881  -0.35357  -0.35081
 Alpha  occ. eigenvalues --   -0.34765  -0.34517  -0.33849  -0.33499  -0.33202
 Alpha  occ. eigenvalues --   -0.33100  -0.32653  -0.31855  -0.30885  -0.29839
 Alpha  occ. eigenvalues --   -0.28689  -0.28354  -0.27496  -0.26522  -0.23298
 Alpha  occ. eigenvalues --   -0.20076  -0.17436  -0.16703
 Alpha virt. eigenvalues --   -0.05203  -0.03470  -0.01065   0.00777   0.01365
 Alpha virt. eigenvalues --    0.02209   0.03083   0.03789   0.04667   0.05779
 Alpha virt. eigenvalues --    0.06575   0.07296   0.08059   0.08312   0.08419
 Alpha virt. eigenvalues --    0.08807   0.09784   0.10033   0.10173   0.10596
 Alpha virt. eigenvalues --    0.11737   0.12014   0.12126   0.12504   0.12922
 Alpha virt. eigenvalues --    0.13293   0.13525   0.14128   0.14505   0.14901
 Alpha virt. eigenvalues --    0.15232   0.15607   0.16166   0.16878   0.17102
 Alpha virt. eigenvalues --    0.17392   0.17807   0.18296   0.18517   0.18994
 Alpha virt. eigenvalues --    0.19256   0.19610   0.19723   0.20076   0.20597
 Alpha virt. eigenvalues --    0.20703   0.21151   0.21599   0.21837   0.22037
 Alpha virt. eigenvalues --    0.22448   0.22526   0.22891   0.23300   0.24192
 Alpha virt. eigenvalues --    0.24580   0.24715   0.25206   0.26318   0.26606
 Alpha virt. eigenvalues --    0.26935   0.27608   0.27729   0.28757   0.28952
 Alpha virt. eigenvalues --    0.29852   0.30764   0.31327   0.31938   0.32776
 Alpha virt. eigenvalues --    0.33786   0.34693   0.35872   0.36184   0.37705
 Alpha virt. eigenvalues --    0.38145   0.39629   0.40898   0.41605   0.42165
 Alpha virt. eigenvalues --    0.43011   0.43571   0.43725   0.44873   0.45004
 Alpha virt. eigenvalues --    0.46048   0.46435   0.47358   0.47782   0.48221
 Alpha virt. eigenvalues --    0.48790   0.49444   0.49648   0.50307   0.50878
 Alpha virt. eigenvalues --    0.51480   0.52599   0.53486   0.53890   0.54183
 Alpha virt. eigenvalues --    0.54520   0.54837   0.55570   0.55809   0.56875
 Alpha virt. eigenvalues --    0.57089   0.57524   0.58717   0.58962   0.59387
 Alpha virt. eigenvalues --    0.59698   0.60271   0.60913   0.61173   0.61414
 Alpha virt. eigenvalues --    0.62329   0.63049   0.63209   0.63540   0.63743
 Alpha virt. eigenvalues --    0.64014   0.64338   0.64820   0.65062   0.65341
 Alpha virt. eigenvalues --    0.65589   0.65915   0.66329   0.66633   0.66849
 Alpha virt. eigenvalues --    0.66890   0.67297   0.67555   0.67781   0.68150
 Alpha virt. eigenvalues --    0.68690   0.69137   0.69362   0.69950   0.70011
 Alpha virt. eigenvalues --    0.70733   0.70875   0.71271   0.71515   0.72370
 Alpha virt. eigenvalues --    0.72680   0.73071   0.73390   0.73979   0.74070
 Alpha virt. eigenvalues --    0.74447   0.75265   0.76082   0.76406   0.77014
 Alpha virt. eigenvalues --    0.77144   0.77793   0.78256   0.78676   0.79502
 Alpha virt. eigenvalues --    0.79740   0.80128   0.80808   0.81462   0.81644
 Alpha virt. eigenvalues --    0.82371   0.83035   0.83551   0.84164   0.84976
 Alpha virt. eigenvalues --    0.85144   0.86077   0.86473   0.87327   0.88157
 Alpha virt. eigenvalues --    0.89187   0.89387   0.90045   0.90116   0.91055
 Alpha virt. eigenvalues --    0.91588   0.92287   0.92713   0.93374   0.94144
 Alpha virt. eigenvalues --    0.94795   0.95039   0.96150   0.96886   0.97327
 Alpha virt. eigenvalues --    0.98548   0.99889   1.00571   1.01202   1.01436
 Alpha virt. eigenvalues --    1.02312   1.02543   1.03850   1.04566   1.05155
 Alpha virt. eigenvalues --    1.06113   1.06476   1.06823   1.09481   1.09940
 Alpha virt. eigenvalues --    1.10907   1.11922   1.12979   1.13966   1.14345
 Alpha virt. eigenvalues --    1.14514   1.16425   1.17000   1.19153   1.19493
 Alpha virt. eigenvalues --    1.20497   1.21749   1.23426   1.24037   1.25649
 Alpha virt. eigenvalues --    1.26046   1.26827   1.27753   1.28475   1.29048
 Alpha virt. eigenvalues --    1.29833   1.30375   1.30614   1.31400   1.32356
 Alpha virt. eigenvalues --    1.32789   1.33828   1.34834   1.35580   1.35789
 Alpha virt. eigenvalues --    1.36364   1.37165   1.37771   1.38782   1.39167
 Alpha virt. eigenvalues --    1.39922   1.40848   1.41695   1.42189   1.42744
 Alpha virt. eigenvalues --    1.42999   1.43273   1.43552   1.44238   1.44461
 Alpha virt. eigenvalues --    1.44658   1.45121   1.45751   1.46403   1.47163
 Alpha virt. eigenvalues --    1.48200   1.49111   1.49405   1.49886   1.50865
 Alpha virt. eigenvalues --    1.51423   1.52198   1.52324   1.53057   1.53547
 Alpha virt. eigenvalues --    1.53825   1.54353   1.55058   1.56283   1.56582
 Alpha virt. eigenvalues --    1.57263   1.58328   1.59411   1.60142   1.60486
 Alpha virt. eigenvalues --    1.61171   1.62105   1.62510   1.62996   1.63299
 Alpha virt. eigenvalues --    1.63852   1.63927   1.64685   1.65850   1.66246
 Alpha virt. eigenvalues --    1.66395   1.67440   1.67840   1.68111   1.68273
 Alpha virt. eigenvalues --    1.68771   1.69729   1.70373   1.70954   1.71223
 Alpha virt. eigenvalues --    1.72063   1.72464   1.72693   1.72717   1.73285
 Alpha virt. eigenvalues --    1.73557   1.74216   1.74738   1.75053   1.75347
 Alpha virt. eigenvalues --    1.75538   1.75746   1.75866   1.76410   1.76985
 Alpha virt. eigenvalues --    1.77440   1.77944   1.78150   1.79179   1.79469
 Alpha virt. eigenvalues --    1.80237   1.80572   1.80912   1.81720   1.81832
 Alpha virt. eigenvalues --    1.82346   1.83183   1.83798   1.84756   1.84976
 Alpha virt. eigenvalues --    1.85245   1.86249   1.86857   1.87196   1.88291
 Alpha virt. eigenvalues --    1.88571   1.88945   1.89876   1.90377   1.90847
 Alpha virt. eigenvalues --    1.91636   1.91888   1.92946   1.94012   1.94415
 Alpha virt. eigenvalues --    1.94748   1.96166   1.96873   1.97433   1.98406
 Alpha virt. eigenvalues --    1.99008   1.99758   2.00696   2.01078   2.01416
 Alpha virt. eigenvalues --    2.02256   2.02938   2.03744   2.04631   2.04697
 Alpha virt. eigenvalues --    2.04991   2.05606   2.06245   2.06999   2.07350
 Alpha virt. eigenvalues --    2.08012   2.08965   2.09861   2.10490   2.11574
 Alpha virt. eigenvalues --    2.12499   2.13051   2.13506   2.14364   2.15869
 Alpha virt. eigenvalues --    2.17531   2.17700   2.18910   2.20403   2.20958
 Alpha virt. eigenvalues --    2.22066   2.23856   2.24138   2.24396   2.25347
 Alpha virt. eigenvalues --    2.26367   2.27106   2.27621   2.28325   2.28939
 Alpha virt. eigenvalues --    2.29952   2.31252   2.32459   2.33947   2.36887
 Alpha virt. eigenvalues --    2.38746   2.39013   2.40144   2.40499   2.41725
 Alpha virt. eigenvalues --    2.41850   2.42247   2.43301   2.43649   2.44135
 Alpha virt. eigenvalues --    2.44516   2.45457   2.45611   2.46467   2.46795
 Alpha virt. eigenvalues --    2.47758   2.48558   2.49203   2.49999   2.50295
 Alpha virt. eigenvalues --    2.50923   2.51295   2.51872   2.52608   2.52986
 Alpha virt. eigenvalues --    2.53870   2.55070   2.55432   2.55825   2.56489
 Alpha virt. eigenvalues --    2.56795   2.57182   2.57902   2.58740   2.59638
 Alpha virt. eigenvalues --    2.60077   2.60605   2.60867   2.61020   2.62737
 Alpha virt. eigenvalues --    2.63890   2.65044   2.66386   2.67174   2.68251
 Alpha virt. eigenvalues --    2.69496   2.70293   2.70398   2.71283   2.72744
 Alpha virt. eigenvalues --    2.73651   2.74907   2.75632   2.77595   2.79147
 Alpha virt. eigenvalues --    2.80471   2.80726   2.82025   2.83767   2.84264
 Alpha virt. eigenvalues --    2.87323   2.88639   2.92923   2.94245   2.97447
 Alpha virt. eigenvalues --    3.02103   3.06492   3.09834   3.13266   3.17383
 Alpha virt. eigenvalues --    3.49271   3.57225  34.83435  34.95349  34.97259
 Alpha virt. eigenvalues --   45.96564
  Beta  occ. eigenvalues --  -77.26807 -19.27604 -19.15101 -19.10911 -14.44515
  Beta  occ. eigenvalues --  -14.42721 -10.32383 -10.31289 -10.30370 -10.27937
  Beta  occ. eigenvalues --  -10.26994 -10.26850 -10.26742 -10.26733 -10.26691
  Beta  occ. eigenvalues --  -10.26224 -10.25773 -10.24223 -10.23683 -10.23234
  Beta  occ. eigenvalues --  -10.23218 -10.22609 -10.22287 -10.20972 -10.20519
  Beta  occ. eigenvalues --  -10.20090  -6.64781  -4.78437  -4.78309  -4.78118
  Beta  occ. eigenvalues --   -3.05058  -1.88455  -1.87708  -1.87331  -1.14121
  Beta  occ. eigenvalues --   -1.01841  -0.96850  -0.86407  -0.85576  -0.84710
  Beta  occ. eigenvalues --   -0.83304  -0.82320  -0.80976  -0.78351  -0.77626
  Beta  occ. eigenvalues --   -0.75387  -0.71792  -0.71245  -0.70730  -0.70275
  Beta  occ. eigenvalues --   -0.68811  -0.67369  -0.66759  -0.64015  -0.63456
  Beta  occ. eigenvalues --   -0.57730  -0.56867  -0.56692  -0.54936  -0.54211
  Beta  occ. eigenvalues --   -0.52566  -0.51255  -0.50611  -0.49634  -0.49026
  Beta  occ. eigenvalues --   -0.47450  -0.46710  -0.46536  -0.46246  -0.45672
  Beta  occ. eigenvalues --   -0.45291  -0.45105  -0.44887  -0.44568  -0.44027
  Beta  occ. eigenvalues --   -0.43750  -0.43553  -0.42816  -0.42428  -0.41291
  Beta  occ. eigenvalues --   -0.41148  -0.40303  -0.39907  -0.39384  -0.38858
  Beta  occ. eigenvalues --   -0.38281  -0.38160  -0.37635  -0.37386  -0.36463
  Beta  occ. eigenvalues --   -0.36189  -0.35782  -0.35612  -0.35176  -0.34905
  Beta  occ. eigenvalues --   -0.34220  -0.33839  -0.33463  -0.33213  -0.33096
  Beta  occ. eigenvalues --   -0.32308  -0.30741  -0.28987  -0.28398  -0.27896
  Beta  occ. eigenvalues --   -0.27447  -0.26927  -0.25293  -0.24968  -0.17238
  Beta  occ. eigenvalues --   -0.15895
  Beta virt. eigenvalues --   -0.05994  -0.04747  -0.03670  -0.03439   0.00006
  Beta virt. eigenvalues --    0.00829   0.02438   0.02845   0.03662   0.04150
  Beta virt. eigenvalues --    0.04873   0.06035   0.06719   0.07353   0.08102
  Beta virt. eigenvalues --    0.08451   0.08759   0.09164   0.09928   0.10106
  Beta virt. eigenvalues --    0.10216   0.10651   0.11762   0.12041   0.12162
  Beta virt. eigenvalues --    0.12533   0.12966   0.13365   0.13612   0.14228
  Beta virt. eigenvalues --    0.14552   0.14942   0.15331   0.15646   0.16321
  Beta virt. eigenvalues --    0.16927   0.17257   0.17466   0.17834   0.18342
  Beta virt. eigenvalues --    0.18543   0.19178   0.19351   0.19626   0.20010
  Beta virt. eigenvalues --    0.20176   0.20749   0.20781   0.21298   0.21733
  Beta virt. eigenvalues --    0.21896   0.22273   0.22557   0.22624   0.22986
  Beta virt. eigenvalues --    0.23357   0.24283   0.24729   0.24774   0.25303
  Beta virt. eigenvalues --    0.26395   0.26693   0.26965   0.27736   0.27948
  Beta virt. eigenvalues --    0.28887   0.28983   0.29914   0.30857   0.31375
  Beta virt. eigenvalues --    0.32112   0.32879   0.33852   0.35038   0.36000
  Beta virt. eigenvalues --    0.36352   0.37847   0.38529   0.39752   0.40960
  Beta virt. eigenvalues --    0.41669   0.42215   0.43105   0.43656   0.43761
  Beta virt. eigenvalues --    0.45028   0.45102   0.46183   0.46500   0.47482
  Beta virt. eigenvalues --    0.47841   0.48311   0.48866   0.49484   0.49725
  Beta virt. eigenvalues --    0.50370   0.50969   0.51534   0.52690   0.53591
  Beta virt. eigenvalues --    0.53991   0.54245   0.54692   0.54940   0.55617
  Beta virt. eigenvalues --    0.55870   0.56920   0.57152   0.57624   0.58783
  Beta virt. eigenvalues --    0.59040   0.59438   0.59799   0.60320   0.61003
  Beta virt. eigenvalues --    0.61272   0.61454   0.62444   0.63125   0.63252
  Beta virt. eigenvalues --    0.63609   0.63791   0.64075   0.64405   0.64836
  Beta virt. eigenvalues --    0.65147   0.65365   0.65634   0.65968   0.66382
  Beta virt. eigenvalues --    0.66687   0.66887   0.66994   0.67468   0.67595
  Beta virt. eigenvalues --    0.67856   0.68214   0.68717   0.69234   0.69423
  Beta virt. eigenvalues --    0.69985   0.70074   0.70757   0.70957   0.71328
  Beta virt. eigenvalues --    0.71588   0.72475   0.72729   0.73157   0.73447
  Beta virt. eigenvalues --    0.74076   0.74128   0.74536   0.75322   0.76156
  Beta virt. eigenvalues --    0.76494   0.77071   0.77268   0.77869   0.78345
  Beta virt. eigenvalues --    0.78800   0.79542   0.79810   0.80293   0.80943
  Beta virt. eigenvalues --    0.81679   0.81759   0.82474   0.83137   0.83627
  Beta virt. eigenvalues --    0.84340   0.85050   0.85215   0.86150   0.86547
  Beta virt. eigenvalues --    0.87426   0.88260   0.89344   0.89439   0.90147
  Beta virt. eigenvalues --    0.90255   0.91148   0.91721   0.92446   0.92794
  Beta virt. eigenvalues --    0.93477   0.94174   0.94900   0.95068   0.96390
  Beta virt. eigenvalues --    0.96959   0.97521   0.98653   0.99968   1.00702
  Beta virt. eigenvalues --    1.01316   1.01528   1.02402   1.02623   1.04008
  Beta virt. eigenvalues --    1.04756   1.05400   1.06320   1.06592   1.07079
  Beta virt. eigenvalues --    1.09580   1.10475   1.10982   1.12023   1.13061
  Beta virt. eigenvalues --    1.14083   1.14529   1.14680   1.16636   1.17155
  Beta virt. eigenvalues --    1.19348   1.19608   1.20780   1.22201   1.24043
  Beta virt. eigenvalues --    1.24434   1.25843   1.26284   1.27123   1.27960
  Beta virt. eigenvalues --    1.28663   1.29881   1.30346   1.30830   1.31403
  Beta virt. eigenvalues --    1.31954   1.32551   1.33543   1.34173   1.35064
  Beta virt. eigenvalues --    1.35825   1.36260   1.36545   1.37323   1.37904
  Beta virt. eigenvalues --    1.39045   1.39468   1.40104   1.41076   1.41870
  Beta virt. eigenvalues --    1.42313   1.42981   1.43157   1.43499   1.43648
  Beta virt. eigenvalues --    1.44351   1.44670   1.44716   1.45334   1.45879
  Beta virt. eigenvalues --    1.46525   1.47338   1.48299   1.49168   1.49535
  Beta virt. eigenvalues --    1.50012   1.51033   1.51459   1.52331   1.52523
  Beta virt. eigenvalues --    1.53203   1.53787   1.53911   1.54417   1.55123
  Beta virt. eigenvalues --    1.56403   1.56635   1.57352   1.58445   1.59487
  Beta virt. eigenvalues --    1.60239   1.60625   1.61274   1.62121   1.62538
  Beta virt. eigenvalues --    1.63039   1.63325   1.63896   1.63962   1.64735
  Beta virt. eigenvalues --    1.65886   1.66282   1.66436   1.67466   1.67876
  Beta virt. eigenvalues --    1.68146   1.68347   1.68817   1.69751   1.70429
  Beta virt. eigenvalues --    1.70992   1.71262   1.72101   1.72518   1.72712
  Beta virt. eigenvalues --    1.72784   1.73384   1.73596   1.74275   1.74785
  Beta virt. eigenvalues --    1.75088   1.75377   1.75591   1.75772   1.75936
  Beta virt. eigenvalues --    1.76438   1.77105   1.77538   1.78014   1.78219
  Beta virt. eigenvalues --    1.79250   1.79534   1.80292   1.80649   1.81090
  Beta virt. eigenvalues --    1.81790   1.81888   1.82391   1.83275   1.83856
  Beta virt. eigenvalues --    1.84799   1.85002   1.85310   1.86309   1.86887
  Beta virt. eigenvalues --    1.87271   1.88391   1.88617   1.88993   1.89968
  Beta virt. eigenvalues --    1.90415   1.90916   1.91675   1.91941   1.93006
  Beta virt. eigenvalues --    1.94149   1.94478   1.94825   1.96208   1.96918
  Beta virt. eigenvalues --    1.97470   1.98428   1.99054   1.99811   2.00753
  Beta virt. eigenvalues --    2.01110   2.01443   2.02291   2.03001   2.03787
  Beta virt. eigenvalues --    2.04665   2.04730   2.05035   2.05625   2.06276
  Beta virt. eigenvalues --    2.07086   2.07381   2.08093   2.08995   2.09952
  Beta virt. eigenvalues --    2.10575   2.11664   2.12590   2.13106   2.13660
  Beta virt. eigenvalues --    2.14396   2.15946   2.17598   2.17766   2.19040
  Beta virt. eigenvalues --    2.20457   2.21095   2.22133   2.23888   2.24219
  Beta virt. eigenvalues --    2.24431   2.25398   2.26402   2.27156   2.27659
  Beta virt. eigenvalues --    2.28445   2.28958   2.30019   2.31309   2.32955
  Beta virt. eigenvalues --    2.34073   2.37197   2.38891   2.39093   2.40181
  Beta virt. eigenvalues --    2.40546   2.41768   2.42021   2.42299   2.43344
  Beta virt. eigenvalues --    2.43895   2.44163   2.44659   2.45471   2.45646
  Beta virt. eigenvalues --    2.46551   2.46838   2.47853   2.48651   2.49324
  Beta virt. eigenvalues --    2.50039   2.50480   2.51001   2.51343   2.51941
  Beta virt. eigenvalues --    2.52668   2.53170   2.53892   2.55198   2.55519
  Beta virt. eigenvalues --    2.55857   2.56632   2.56918   2.57396   2.58064
  Beta virt. eigenvalues --    2.59069   2.59798   2.60228   2.60872   2.61086
  Beta virt. eigenvalues --    2.61519   2.63012   2.64198   2.65311   2.67000
  Beta virt. eigenvalues --    2.68457   2.68804   2.69758   2.70465   2.70955
  Beta virt. eigenvalues --    2.72454   2.74231   2.75917   2.76325   2.77169
  Beta virt. eigenvalues --    2.79084   2.80790   2.81330   2.82399   2.83519
  Beta virt. eigenvalues --    2.85284   2.86943   2.88772   2.89812   2.95059
  Beta virt. eigenvalues --    2.95514   2.98971   3.02847   3.08398   3.11300
  Beta virt. eigenvalues --    3.13513   3.19455   3.49310   3.57350  34.84263
  Beta virt. eigenvalues --   34.96245  34.98132  45.97303
          Condensed to atoms (all electrons):
          Atomic-Atomic Spin Densities.
 Mulliken charges and spin densities:
               1          2
     1  H    0.049761  -0.000412
     2  C   -0.110049   0.005369
     3  H    0.034938   0.000326
     4  H    0.143261   0.000339
     5  H    0.160437  -0.000785
     6  O   -0.357177   0.893838
     7  H    0.047048  -0.000025
     8  O   -0.536911   0.427255
     9  C   -0.013646  -0.001356
    10  H    0.027949  -0.000224
    11  H    0.022294   0.004401
    12  C   -0.020209   0.006133
    13  H    0.112084   0.000488
    14  H    0.032650  -0.000008
    15  H    0.113094  -0.000407
    16  C   -0.013339   0.000653
    17  H    0.041964   0.000575
    18  H    0.136196  -0.003223
    19  Ru   0.317416   0.595160
    20  H    0.138632  -0.002702
    21  N   -0.367082   0.014587
    22  C    0.116026   0.002385
    23  C   -0.460616  -0.002069
    24  H    0.033602  -0.000098
    25  H    0.037017  -0.000077
    26  C   -0.022983   0.000214
    27  C   -0.469050   0.003494
    28  P    0.238283   0.006412
    29  H    0.029642  -0.000799
    30  C    0.010587   0.000486
    31  H    0.085843   0.000307
    32  H    0.059143  -0.000095
    33  H    0.044462   0.000366
    34  C   -0.031909  -0.001044
    35  H    0.043159  -0.000233
    36  C   -0.000999   0.028660
    37  C    0.015894  -0.000022
    38  H    0.131381  -0.000874
    39  C   -0.012145   0.000252
    40  H    0.050051  -0.000034
    41  H    0.037145  -0.000026
    42  C    0.051952   0.002294
    43  N   -0.299228   0.004839
    44  C   -0.067770   0.001015
    45  H    0.024100  -0.000085
    46  H    0.080501   0.000481
    47  H    0.040259  -0.000121
    48  H    0.044271  -0.000065
    49  C   -0.107146   0.000527
    50  H    0.054125  -0.000040
    51  H    0.035821   0.000054
    52  C    0.088544  -0.003011
    53  C   -0.043535   0.001330
    54  H    0.046047   0.000291
    55  H    0.008298   0.000353
    56  H    0.105748  -0.000235
    57  H    0.068286  -0.001004
    58  C   -0.045605  -0.000557
    59  C    0.086785  -0.002401
    60  H    0.007254   0.000171
    61  H    0.022924   0.000112
    62  O   -0.095474   0.018864
 Sum of Mulliken charges =  -0.00000   2.00000
 Mulliken charges and spin densities with hydrogens summed into heavy atoms:
               1          2
     2  C    0.117911   0.005621
     6  O   -0.357177   0.893838
     8  O   -0.536911   0.427255
     9  C    0.121742   0.002638
    12  C    0.200827   0.005116
    16  C    0.187757   0.001692
    19  Ru   0.317416   0.595160
    21  N   -0.367082   0.014587
    22  C    0.281863  -0.001637
    23  C   -0.460616  -0.002069
    26  C    0.173351  -0.002670
    27  C   -0.469050   0.003494
    28  P    0.238283   0.006412
    30  C    0.132324   0.000654
    34  C    0.134435  -0.000256
    36  C   -0.000999   0.028660
    37  C    0.144926  -0.000236
    39  C    0.202427  -0.000357
    42  C    0.051952   0.002294
    43  N   -0.299228   0.004839
    44  C    0.089769   0.000815
    49  C    0.066887  -0.000712
    52  C    0.088544  -0.003011
    53  C   -0.035237   0.001683
    58  C   -0.038351  -0.000386
    59  C    0.109710  -0.002288
    62  O   -0.095474   0.018864
 Electronic spatial extent (au):  <R**2>=           9590.1152
 Charge=              0.0000 electrons
 Dipole moment (field-independent basis, Debye):
    X=              0.4170    Y=              6.4054    Z=             -3.4398  Tot=              7.2825
 Quadrupole moment (field-independent basis, Debye-Ang):
   XX=           -161.9361   YY=           -181.6962   ZZ=           -196.4918
   XY=             -4.0428   XZ=             -2.5669   YZ=             -2.7298
 Traceless Quadrupole moment (field-independent basis, Debye-Ang):
   XX=             18.1053   YY=             -1.6548   ZZ=            -16.4504
   XY=             -4.0428   XZ=             -2.5669   YZ=             -2.7298
 Octapole moment (field-independent basis, Debye-Ang**2):
  XXX=            -58.4536  YYY=             33.4531  ZZZ=             41.1990  XYY=            -25.1574
  XXY=            -17.8301  XXZ=             11.1891  XZZ=              1.7632  YZZ=            -11.9312
  YYZ=            -12.0635  XYZ=              2.6312
 Hexadecapole moment (field-independent basis, Debye-Ang**3):
 XXXX=          -7094.2470 YYYY=          -3373.7255 ZZZZ=          -2323.8217 XXXY=              0.4581
 XXXZ=            -68.2547 YYYX=            -33.0567 YYYZ=            -56.7222 ZZZX=            -76.8181
 ZZZY=             31.0611 XXYY=          -1704.0339 XXZZ=          -1548.8484 YYZZ=           -958.2846
 XXYZ=             27.3715 YYXZ=            -44.6387 ZZXY=             37.9700
 N-N= 3.443984371580D+03 E-N=-1.049856388442D+04  KE= 1.483986014753D+03
                          Isotropic Fermi Contact Couplings
        Atom                 a.u.       MegaHertz       Gauss      10(-4) cm-1
     1  H(1)              -0.00009      -0.20424      -0.07288      -0.06813
     2  C(13)              0.00120       0.67366       0.24038       0.22471
     3  H(1)               0.00012       0.26468       0.09444       0.08829
     4  H(1)              -0.00006      -0.13084      -0.04669      -0.04364
     5  H(1)              -0.00024      -0.52927      -0.18886      -0.17655
     6  O(17)              0.16883     -51.17308     -18.25983     -17.06950
     7  H(1)              -0.00000      -0.00304      -0.00108      -0.00101
     8  O(17)              0.07432     -22.52764      -8.03842      -7.51441
     9  C(13)              0.00035       0.19433       0.06934       0.06482
    10  H(1)              -0.00006      -0.14129      -0.05041      -0.04713
    11  H(1)               0.00156       3.48465       1.24341       1.16235
    12  C(13)              0.00213       1.19672       0.42702       0.39918
    13  H(1)               0.00011       0.24077       0.08591       0.08031
    14  H(1)              -0.00004      -0.08503      -0.03034      -0.02836
    15  H(1)               0.00044       0.98185       0.35035       0.32751
    16  C(13)              0.00070       0.39184       0.13982       0.13070
    17  H(1)               0.00019       0.41452       0.14791       0.13827
    18  H(1)               0.00047       1.05435       0.37622       0.35169
    19  Ru(99)            -0.00001       0.00058       0.00021       0.00019
    20  H(1)               0.00003       0.07511       0.02680       0.02506
    21  N(14)              0.00282       0.45609       0.16274       0.15213
    22  C(13)             -0.00111      -0.62265      -0.22218      -0.20769
    23  C(13)             -0.00144      -0.80720      -0.28803      -0.26925
    24  H(1)              -0.00002      -0.03358      -0.01198      -0.01120
    25  H(1)              -0.00002      -0.04597      -0.01640      -0.01533
    26  C(13)             -0.00059      -0.33392      -0.11915      -0.11138
[...]
 ! D42   D(36,19,28,49)         68.8177         -DE/DX =    0.0                 !
 ! D43   D(43,19,28,23)         84.6867         -DE/DX =   -0.0001              !
 ! D44   D(43,19,28,27)       -136.0251         -DE/DX =    0.0                 !
 ! D45   D(43,19,28,49)        -25.1177         -DE/DX =   -0.0001              !
 ! D46   D(8,19,43,42)         -60.9621         -DE/DX =   -0.0005              !
 ! D47   D(8,19,43,52)         113.0567         -DE/DX =   -0.0005              !
 ! D48   D(28,19,43,42)       -155.6005         -DE/DX =    0.0002              !
 ! D49   D(28,19,43,52)         18.4183         -DE/DX =    0.0002              !
 ! D50   D(36,19,43,42)        110.2894         -DE/DX =   -0.0002              !
 ! D51   D(36,19,43,52)        -75.6918         -DE/DX =   -0.0002              !
 ! D52   D(9,21,22,18)          49.513          -DE/DX =    0.0                 !
 ! D53   D(9,21,22,29)         -68.7966         -DE/DX =    0.0                 !
 ! D54   D(9,21,22,42)         165.0385         -DE/DX =    0.0                 !
 ! D55   D(34,21,22,18)        175.3229         -DE/DX =    0.0                 !
 ! D56   D(34,21,22,29)         57.0133         -DE/DX =    0.0                 !
 ! D57   D(34,21,22,42)        -69.1516         -DE/DX =    0.0                 !
 ! D58   D(9,21,34,31)         -66.3627         -DE/DX =    0.0                 !
 ! D59   D(9,21,34,44)          57.1033         -DE/DX =    0.0                 !
 ! D60   D(9,21,34,46)        -179.6574         -DE/DX =    0.0                 !
 ! D61   D(22,21,34,31)        170.581          -DE/DX =    0.0                 !
 ! D62   D(22,21,34,44)        -65.953          -DE/DX =    0.0                 !
 ! D63   D(22,21,34,46)         57.2863         -DE/DX =    0.0                 !
 ! D64   D(18,22,42,43)         74.6585         -DE/DX =    0.0                 !
 ! D65   D(18,22,42,53)        -99.7519         -DE/DX =    0.0                 !
 ! D66   D(21,22,42,43)        -40.0063         -DE/DX =    0.0                 !
 ! D67   D(21,22,42,53)        145.5834         -DE/DX =    0.0                 !
 ! D68   D(29,22,42,43)       -166.908          -DE/DX =    0.0                 !
 ! D69   D(29,22,42,53)         18.6816         -DE/DX =    0.0                 !
 ! D70   D(12,23,26,20)        -59.1819         -DE/DX =    0.0                 !
 ! D71   D(12,23,26,24)         58.627          -DE/DX =    0.0                 !
 ! D72   D(12,23,26,45)        177.0083         -DE/DX =    0.0                 !
 ! D73   D(28,23,26,20)         57.414          -DE/DX =    0.0                 !
 ! D74   D(28,23,26,24)        175.2229         -DE/DX =    0.0                 !
 ! D75   D(28,23,26,45)        -66.3958         -DE/DX =    0.0                 !
 ! D76   D(37,23,26,20)       -179.1779         -DE/DX =    0.0                 !
 ! D77   D(37,23,26,24)        -61.369          -DE/DX =    0.0                 !
 ! D78   D(37,23,26,45)         57.0124         -DE/DX =    0.0                 !
 ! D79   D(12,23,28,19)         65.0604         -DE/DX =    0.0                 !
 ! D80   D(12,23,28,27)        -79.4675         -DE/DX =    0.0                 !
 ! D81   D(12,23,28,49)        170.2733         -DE/DX =    0.0                 !
 ! D82   D(26,23,28,19)        -50.5078         -DE/DX =    0.0                 !
 ! D83   D(26,23,28,27)        164.9644         -DE/DX =    0.0                 !
 ! D84   D(26,23,28,49)         54.7051         -DE/DX =    0.0                 !
 ! D85   D(37,23,28,19)       -170.7483         -DE/DX =    0.0                 !
 ! D86   D(37,23,28,27)         44.7239         -DE/DX =    0.0                 !
 ! D87   D(37,23,28,49)        -65.5354         -DE/DX =    0.0                 !
 ! D88   D(12,23,37,35)        -63.6783         -DE/DX =    0.0                 !
 ! D89   D(12,23,37,40)         54.526          -DE/DX =    0.0                 !
 ! D90   D(12,23,37,51)        177.8771         -DE/DX =    0.0                 !
 ! D91   D(26,23,37,35)         54.181          -DE/DX =    0.0                 !
 ! D92   D(26,23,37,40)        172.3853         -DE/DX =    0.0                 !
 ! D93   D(26,23,37,51)        -64.2636         -DE/DX =    0.0                 !
 ! D94   D(28,23,37,35)        173.1475         -DE/DX =    0.0                 !
 ! D95   D(28,23,37,40)        -68.6483         -DE/DX =    0.0                 !
 ! D96   D(28,23,37,51)         54.7028         -DE/DX =    0.0                 !
 ! D97   D(16,27,28,19)        -88.7611         -DE/DX =    0.0                 !
 ! D98   D(16,27,28,23)         51.7213         -DE/DX =    0.0                 !
 ! D99   D(16,27,28,49)        163.1581         -DE/DX =    0.0                 !
 ! D100  D(30,27,28,19)        147.8792         -DE/DX =    0.0                 !
 ! D101  D(30,27,28,23)        -71.6383         -DE/DX =    0.0                 !
 ! D102  D(30,27,28,49)         39.7985         -DE/DX =    0.0                 !
 ! D103  D(39,27,28,19)         28.1626         -DE/DX =    0.0                 !
 ! D104  D(39,27,28,23)        168.645          -DE/DX =    0.0                 !
 ! D105  D(39,27,28,49)        -79.9182         -DE/DX =    0.0                 !
 ! D106  D(16,27,30,25)        -63.387          -DE/DX =    0.0                 !
 ! D107  D(16,27,30,33)         55.973          -DE/DX =    0.0                 !
 ! D108  D(16,27,30,47)        173.7241         -DE/DX =    0.0                 !
 ! D109  D(28,27,30,25)         59.186          -DE/DX =    0.0                 !
 ! D110  D(28,27,30,33)        178.546          -DE/DX =    0.0                 !
 ! D111  D(28,27,30,47)        -63.7028         -DE/DX =    0.0                 !
 ! D112  D(39,27,30,25)        178.7611         -DE/DX =    0.0                 !
 ! D113  D(39,27,30,33)        -61.8789         -DE/DX =    0.0                 !
 ! D114  D(39,27,30,47)         55.8723         -DE/DX =    0.0                 !
 ! D115  D(16,27,39,38)         55.5469         -DE/DX =    0.0                 !
 ! D116  D(16,27,39,41)        -63.6131         -DE/DX =    0.0                 !
 ! D117  D(16,27,39,54)        177.566          -DE/DX =    0.0                 !
 ! D118  D(28,27,39,38)        -62.2764         -DE/DX =    0.0                 !
 ! D119  D(28,27,39,41)        178.5636         -DE/DX =    0.0                 !
 ! D120  D(28,27,39,54)         59.7428         -DE/DX =    0.0                 !
 ! D121  D(30,27,39,38)        175.1781         -DE/DX =    0.0                 !
 ! D122  D(30,27,39,41)         56.0182         -DE/DX =    0.0                 !
 ! D123  D(30,27,39,54)        -62.8027         -DE/DX =    0.0                 !
 ! D124  D(19,28,49,52)         34.2785         -DE/DX =    0.0001              !
 ! D125  D(19,28,49,56)        -82.7929         -DE/DX =    0.0                 !
 ! D126  D(19,28,49,57)        160.0681         -DE/DX =    0.0                 !
 ! D127  D(23,28,49,52)        -83.0162         -DE/DX =    0.0                 !
 ! D128  D(23,28,49,56)        159.9125         -DE/DX =    0.0                 !
 ! D129  D(23,28,49,57)         42.7734         -DE/DX =    0.0                 !
 ! D130  D(27,28,49,52)        161.301          -DE/DX =    0.0                 !
 ! D131  D(27,28,49,56)         44.2296         -DE/DX =    0.0                 !
 ! D132  D(27,28,49,57)        -72.9094         -DE/DX =    0.0                 !
 ! D133  D(21,34,44,32)        -61.7017         -DE/DX =    0.0                 !
 ! D134  D(21,34,44,48)         60.6798         -DE/DX =    0.0                 !
 ! D135  D(21,34,44,50)        179.4571         -DE/DX =    0.0                 !
 ! D136  D(31,34,44,32)         60.3554         -DE/DX =    0.0                 !
 ! D137  D(31,34,44,48)       -177.263          -DE/DX =    0.0                 !
 ! D138  D(31,34,44,50)        -58.4857         -DE/DX =    0.0                 !
 ! D139  D(46,34,44,32)        176.7815         -DE/DX =    0.0                 !
 ! D140  D(46,34,44,48)        -60.837          -DE/DX =    0.0                 !
 ! D141  D(46,34,44,50)         57.9404         -DE/DX =    0.0                 !
 ! D142  D(22,42,43,19)          3.7431         -DE/DX =    0.0                 !
 ! D143  D(22,42,43,52)       -170.3826         -DE/DX =    0.0                 !
 ! D144  D(53,42,43,19)        178.3917         -DE/DX =    0.0                 !
 ! D145  D(53,42,43,52)          4.266          -DE/DX =    0.0001              !
 ! D146  D(22,42,53,55)         -6.9085         -DE/DX =    0.0                 !
 ! D147  D(22,42,53,59)        172.0991         -DE/DX =    0.0                 !
 ! D148  D(43,42,53,55)        179.0381         -DE/DX =    0.0                 !
 ! D149  D(43,42,53,59)         -1.9543         -DE/DX =    0.0                 !
 ! D150  D(19,43,52,49)          1.3162         -DE/DX =   -0.0001              !
 ! D151  D(19,43,52,58)       -177.2684         -DE/DX =    0.0                 !
 ! D152  D(42,43,52,49)        175.0192         -DE/DX =   -0.0001              !
 ! D153  D(42,43,52,58)         -3.5655         -DE/DX =   -0.0001              !
 ! D154  D(28,49,52,43)        -26.2162         -DE/DX =    0.0                 !
 ! D155  D(28,49,52,58)        152.3086         -DE/DX =   -0.0001              !
 ! D156  D(56,49,52,43)         88.032          -DE/DX =    0.0                 !
 ! D157  D(56,49,52,58)        -93.4433         -DE/DX =    0.0                 !
 ! D158  D(57,49,52,43)       -153.6089         -DE/DX =    0.0                 !
 ! D159  D(57,49,52,58)         24.9159         -DE/DX =    0.0                 !
 ! D160  D(43,52,58,59)          0.6072         -DE/DX =    0.0                 !
 ! D161  D(43,52,58,60)       -179.6571         -DE/DX =    0.0                 !
 ! D162  D(49,52,58,59)       -177.8547         -DE/DX =    0.0001              !
 ! D163  D(49,52,58,60)          1.8809         -DE/DX =    0.0001              !
 ! D164  D(42,53,59,58)         -0.9473         -DE/DX =    0.0                 !
 ! D165  D(42,53,59,61)       -179.9074         -DE/DX =    0.0                 !
 ! D166  D(55,53,59,58)        178.0461         -DE/DX =    0.0                 !
 ! D167  D(55,53,59,61)         -0.9141         -DE/DX =    0.0                 !
 ! D168  D(52,58,59,53)          1.6017         -DE/DX =    0.0                 !
 ! D169  D(52,58,59,61)       -179.4372         -DE/DX =    0.0                 !
 ! D170  D(60,58,59,53)       -178.1306         -DE/DX =    0.0001              !
 ! D171  D(60,58,59,61)          0.8306         -DE/DX =    0.0                 !
 --------------------------------------------------------------------------------
 Iteration  1 RMS(Cart)=  0.00597338 RMS(Int)=  0.00752226
 Iteration  2 RMS(Cart)=  0.00214681 RMS(Int)=  0.00673230
 Iteration  3 RMS(Cart)=  0.00002513 RMS(Int)=  0.00673225
 Iteration  4 RMS(Cart)=  0.00000045 RMS(Int)=  0.00673225
 Iteration  1 RMS(Cart)=  0.00178475 RMS(Int)=  0.00148393
 Iteration  2 RMS(Cart)=  0.00039310 RMS(Int)=  0.00160640
 Iteration  3 RMS(Cart)=  0.00008665 RMS(Int)=  0.00166306
 Iteration  4 RMS(Cart)=  0.00001910 RMS(Int)=  0.00167677
 Iteration  5 RMS(Cart)=  0.00000421 RMS(Int)=  0.00167985
 Iteration  6 RMS(Cart)=  0.00000093 RMS(Int)=  0.00168053
 GradGradGradGradGradGradGradGradGradGradGradGradGradGradGradGradGradGrad

 Symmetry turned off by external request.
 Stoichiometry    C20H35N2O3PRu(3)
 Framework group  C1[X(C20H35N2O3PRu)]
 Deg. of freedom   180
 Full point group                 C1      NOp   1
                          Input orientation:                          
 ---------------------------------------------------------------------
 Center     Atomic      Atomic             Coordinates (Angstroms)
 Number     Number       Type             X           Y           Z
 ---------------------------------------------------------------------
      1          1           0       -3.671924   -3.302300    1.750373
      2          6           0       -3.361193   -2.688189    0.892730
      3          1           0       -4.092265   -2.852830    0.086090
      4          1           0       -2.372511   -3.045792    0.567222
      5          1           0        1.511599   -0.779909    2.709280
      6          8           0       -0.307820   -2.077300    1.343108
      7          1           0        4.346479   -1.689609    0.708303
      8          8           0       -0.477459   -0.684434    2.056521
      9          6           0       -3.271384   -1.243779    1.333983
     10          1           0        2.848123    0.097692    3.519429
     11          1           0       -4.260757   -0.860987    1.649386
     12          6           0        2.532940   -0.387121    2.579532
     13          1           0        2.877357   -2.692623    0.547204
     14          1           0        3.228586   -1.212842    2.386906
     15          1           0       -2.571929   -1.162070    2.181590
     16          6           0        3.665294   -2.163950   -0.010614
     17          1           0        4.245675   -2.915551   -0.570791
     18          1           0       -2.231238    0.958263    1.820166
     19         44           0       -0.426001   -0.629372    0.086504
     20          1           0        0.587470    1.410969    2.069350
     21          7           0       -2.704396   -0.349915    0.301435
     22          6           0       -2.696024    1.027865    0.820249
     23          6           0        2.542963    0.672283    1.471391
     24          1           0        1.972025    2.197469    2.871410
     25          1           0        4.745028    0.276761   -0.966270
     26          6           0        1.603647    1.802396    1.910337
     27          6           0        3.071068   -1.162636   -1.002833
     28         15           0        1.792653   -0.079337   -0.105512
     29          1           0       -3.711982    1.444651    0.928436
     30          6           0        4.179682   -0.344647   -1.670414
     31          1           0       -3.229060   -1.428493   -1.404529
     32          1           0       -5.454492   -0.843405   -0.351721
     33          1           0        4.892293   -1.039883   -2.144800
     34          6           0       -3.405640   -0.425123   -0.997407
     35          1           0        4.242193    1.759524    2.206942
     36          6           0       -0.583179   -1.227595   -1.664917
     37          6           0        3.947191    1.241582    1.279019
     38          1           0        1.588972   -2.628850   -1.654493
     39          6           0        2.341926   -1.956761   -2.086326
     40          1           0        4.697864    0.460944    1.093585
     41          1           0        3.082241   -2.568398   -2.628175
     42          6           0       -1.823246    1.934516    0.003295
     43          7           0       -0.669235    1.369518   -0.401724
     44          6           0       -4.897560   -0.129384   -0.975901
     45          1           0        1.582998    2.641854    1.198685
     46          1           0       -2.892379    0.273059   -1.676152
     47          1           0        3.787579    0.304544   -2.467557
     48          1           0       -5.126101    0.886316   -0.619371
     49          6           0        1.579673    1.376819   -1.274937
     50          1           0       -5.291015   -0.209392   -2.000318
     51          1           0        4.001423    1.980884    0.463936
     52          6           0        0.303413    2.104865   -0.976222
     53          6           0       -2.082978    3.277752   -0.237825
     54          1           0        1.843968   -1.313037   -2.825367
     55          1           0       -3.029136    3.714631    0.083302
     56          1           0        1.506056    0.918553   -2.276586
     57          1           0        2.435401    2.067719   -1.287873
     58          6           0        0.101402    3.459841   -1.229870
     59          6           0       -1.109181    4.046723   -0.872369
     60          1           0        0.892020    4.045473   -1.700162
     61          1           0       -1.286838    5.104688   -1.072516
     62          8           0       -0.785158   -1.648728   -2.732690
 ---------------------------------------------------------------------
 Rotational constants (GHZ):           0.2511851           0.1556704           0.1345960
 Basis read from rwf:  (5D, 7F)
 Pseudo-potential data read from rwf file.
   579 basis functions,  1206 primitive gaussians,   608 cartesian basis functions
   113 alpha electrons      111 beta electrons
       nuclear repulsion energy      3448.1185667229 Hartrees.
 NAtoms=   62 NActive=   62 NUniq=   62 SFac= 1.00D+00 NAtFMM=   60 NAOKFM=T Big=T
 Integral buffers will be    131072 words long.
 Raffenetti 2 integral format.
 Two-electron integral symmetry is turned off.
 Nuclear repulsion after empirical dispersion term =     3448.0248287528 Hartrees.
 One-electron integrals computed using PRISM.
   1 Symmetry operations used in ECPInt.
 ECPInt:  NShTT=   38503 NPrTT=  272579 LenC2=   35771 LenP2D=  137696.
 LDataN:  DoStor=T MaxTD1= 6 Len=  172
 Number of processors reduced to  16 by ecpmxn.
 NBasis=   579 RedAO= T EigKep=  4.41D-04  NBF=   579
 NBsUse=   579 1.00D-06 EigRej= -1.00D+00 NBFU=   579
 Defaulting to unpruned grid for atomic number  44.
 Initial guess from the checkpoint file:  "/scratch/js1212.757922/GAlt-Mono-T-0-OO-Scan-GPO.chk"
 B after Tr=    -0.000082   -0.000293    0.001369
         Rot=    1.000000    0.000016    0.000009   -0.000006 Ang=   0.00 deg.
 Initial guess <Sx>= 0.0000 <Sy>= 0.0000 <Sz>= 1.0000 <S**2>= 2.0274 S= 1.0091
 Requested convergence on RMS density matrix=1.00D-08 within 128 cycles.
 Requested convergence on MAX density matrix=1.00D-06.
 Requested convergence on             energy=1.00D-06.
 No special actions if energy rises.
 Defaulting to unpruned grid for atomic number  44.
 Defaulting to unpruned grid for atomic number  44.
 Defaulting to unpruned grid for atomic number  44.
 Defaulting to unpruned grid for atomic number  44.
 Defaulting to unpruned grid for atomic number  44.
 Defaulting to unpruned grid for atomic number  44.
 Defaulting to unpruned grid for atomic number  44.
 Defaulting to unpruned grid for atomic number  44.
 Defaulting to unpruned grid for atomic number  44.
 Defaulting to unpruned grid for atomic number  44.
 Defaulting to unpruned grid for atomic number  44.
 Defaulting to unpruned grid for atomic number  44.
 Defaulting to unpruned grid for atomic number  44.
 Defaulting to unpruned grid for atomic number  44.
 Defaulting to unpruned grid for atomic number  44.
 Defaulting to unpruned grid for atomic number  44.
 Defaulting to unpruned grid for atomic number  44.
 Defaulting to unpruned grid for atomic number  44.
 Defaulting to unpruned grid for atomic number  44.
 Defaulting to unpruned grid for atomic number  44.
 Restarting incremental Fock formation.
 Restarting incremental Fock formation.
 Restarting incremental Fock formation.
 Restarting incremental Fock formation.
 Restarting incremental Fock formation.
 Restarting incremental Fock formation.
 >>>>>>>>>> Convergence criterion not met.
 SCF Done:  E(UPBE1PBE) =  -1553.26984441     A.U. after  129 cycles
            NFock=128  Conv=0.27D-03     -V/T= 2.0464
 <Sx>= 0.0000 <Sy>= 0.0000 <Sz>= 1.0000 <S**2>= 2.0199 S= 1.0066
 <L.S>= 0.000000000000E+00
 Annihilation of the first spin contaminant:
 S**2 before annihilation     2.0199,   after     2.0002
 Convergence failure -- run terminated.
 Error termination via Lnk1e in /cluster/chemistry/gaussian/g16/l502.exe at Sat Jul 25 07:11:03 2020.
 Job cpu time:      10 days  9 hours 21 minutes 34.3 seconds.
 Elapsed time:       0 days 12 hours 30 minutes  0.5 seconds.
 File lengths (MBytes):  RWF=    375 Int=      0 D2E=      0 Chk=     50 Scr=      1
