 Entering Gaussian System, Link 0=g16
 Initial command:
 /cluster/chemistry/gaussian/g16/l1.exe "/scratch/js1212.754466/scratch/Gau-19495.inp" -scrdir="/scratch/js1212.754466/scratch/"
 Entering Link 1 = /cluster/chemistry/gaussian/g16/l1.exe PID=     19496.
  
 Copyright (c) 1988,1990,1992,1993,1995,1998,2003,2009,2016,
            Gaussian, Inc.  All Rights Reserved.
  
 This is part of the Gaussian(R) 16 program.  It is based on
 the Gaussian(R) 09 system (copyright 2009, Gaussian, Inc.),
 the Gaussian(R) 03 system (copyright 2003, Gaussian, Inc.),
 the Gaussian(R) 98 system (copyright 1998, Gaussian, Inc.),
 the Gaussian(R) 94 system (copyright 1995, Gaussian, Inc.),
 the Gaussian 92(TM) system (copyright 1992, Gaussian, Inc.),
 the Gaussian 90(TM) system (copyright 1990, Gaussian, Inc.),
 the Gaussian 88(TM) system (copyright 1988, Gaussian, Inc.),
 the Gaussian 86(TM) system (copyright 1986, Carnegie Mellon
 University), and the Gaussian 82(TM) system (copyright 1983,
 Carnegie Mellon University). Gaussian is a federally registered
 trademark of Gaussian, Inc.
  
 This software contains proprietary and confidential information,
 including trade secrets, belonging to Gaussian, Inc.
  
 This software is provided under written license and may be
 used, copied, transmitted, or stored only in accord with that
 written license.
  
 The following legend is applicable only to US Government
 contracts under FAR:
  
                    RESTRICTED RIGHTS LEGEND
  
 Use, reproduction and disclosure by the US Government is
 subject to restrictions as set forth in subparagraphs (a)
 and (c) of the Commercial Computer Software - Restricted
 Rights clause in FAR 52.227-19.
  
 Gaussian, Inc.
 340 Quinnipiac St., Bldg. 40, Wallingford CT 06492
  
  
 ---------------------------------------------------------------
 Warning -- This program may not be used in any manner that
 competes with the business of Gaussian, Inc. or will provide
 assistance to any competitor of Gaussian, Inc.  The licensee
 of this program is prohibited from giving any competitor of
 Gaussian, Inc. access to this program.  By using this program,
 the user acknowledges that Gaussian, Inc. is engaged in the
 business of creating and licensing software in the field of
 computational chemistry and represents and warrants to the
 licensee that it is not a competitor of Gaussian, Inc. and that
 it will not use this program in any manner prohibited above.
 ---------------------------------------------------------------
  

 Cite this work as:
 Gaussian 16, Revision A.03,
 M. J. Frisch, G. W. Trucks, H. B. Schlegel, G. E. Scuseria, 
 M. A. Robb, J. R. Cheeseman, G. Scalmani, V. Barone, 
 G. A. Petersson, H. Nakatsuji, X. Li, M. Caricato, A. V. Marenich, 
 J. Bloino, B. G. Janesko, R. Gomperts, B. Mennucci, H. P. Hratchian, 
 J. V. Ortiz, A. F. Izmaylov, J. L. Sonnenberg, D. Williams-Young, 
 F. Ding, F. Lipparini, F. Egidi, J. Goings, B. Peng, A. Petrone, 
 T. Henderson, D. Ranasinghe, V. G. Zakrzewski, J. Gao, N. Rega, 
 G. Zheng, W. Liang, M. Hada, M. Ehara, K. Toyota, R. Fukuda, 
 J. Hasegawa, M. Ishida, T. Nakajima, Y. Honda, O. Kitao, H. Nakai, 
 T. Vreven, K. Throssell, J. A. Montgomery, Jr., J. E. Peralta, 
 F. Ogliaro, M. J. Bearpark, J. J. Heyd, E. N. Brothers, K. N. Kudin, 
 V. N. Staroverov, T. A. Keith, R. Kobayashi, J. Normand, 
 K. Raghavachari, A. P. Rendell, J. C. Burant, S. S. Iyengar, 
 J. Tomasi, M. Cossi, J. M. Millam, M. Klene, C. Adamo, R. Cammi, 
 J. W. Ochterski, R. L. Martin, K. Morokuma, O. Farkas, 
 J. B. Foresman, and D. J. Fox, Gaussian, Inc., Wallingford CT, 2016.
 
 ******************************************
 Gaussian 16:  ES64L-G16RevA.03 25-Dec-2016
                 5-Jul-2020 
 ******************************************
 %rwf=/scratch/js1212.754466/J-Trans-Mono-T-0-H2O-GPOF.rwf
 %nosave
 %nprocshared=20
 Will use up to   20 processors via shared memory.
 %mem=2000MB
 %chk=/scratch/js1212.754466/J-Trans-Mono-T-0-H2O-GPOF.chk
 ---------------------------------------------------
 # opt freq genecp pbe1pbe EmpiricalDispersion=GD3BJ
 ---------------------------------------------------
 1/18=20,19=15,26=3,38=1/1,3;
 2/9=110,12=2,17=6,18=5,40=1/2;
 3/5=7,11=2,16=1,17=8,25=1,30=1,71=1,74=-13,124=41/1,2,3;
 4//1;
 5/5=2,38=5/2;
 6/7=2,8=2,9=2,10=2,28=1/1;
 7//1,2,3,16;
 1/18=20,19=15,26=3/3(2);
 2/9=110/2;
 99//99;
 2/9=110/2;
 3/5=7,6=1,11=2,16=1,17=8,25=1,30=1,71=1,74=-13,82=7,124=41/1,2,3;
 4/5=5,16=3,69=1/1;
 5/5=2,38=5/2;
 7//1,2,3,16;
 1/18=20,19=15,26=3/3(-5);
 2/9=110/2;
 6/7=2,8=2,9=2,10=2,19=2,28=1/1;
 99/9=1/99;
 -------------------
 Title Card Required
 -------------------
 Symbolic Z-matrix:
 Charge =  0 Multiplicity = 3
 H                    -3.50199  -3.4851    1.59557 
 C                    -3.13979  -2.82724   0.79251 
 H                    -3.70999  -3.06589  -0.11795 
 H                    -2.07624  -3.05221   0.61676 
 H                     1.99487  -0.98224   2.60797 
 O                    -0.50116  -0.38466   2.19171 
 H                     2.96724  -2.64625   0.42986 
 O                    -0.45958  -1.61545   2.6225 
 C                    -3.29291  -1.38456   1.22287 
 H                     3.30673  -0.01384   3.32961 
 H                    -4.35886  -1.12647   1.37093 
 C                     2.91434  -0.42318   2.38336 
 H                     1.71886  -2.84347  -0.81005 
 H                     3.66606  -1.1261    1.99343 
 H                    -2.783    -1.23865   2.18384 
 C                     2.76039  -2.5361   -0.64492 
 H                     3.4271   -3.22314  -1.19273 
 H                    -2.41217   0.87935   1.86869 
 Ru                   -0.40056  -0.657     0.09965 
 H                     0.70528   1.23852   2.3101 
 N                    -2.67546  -0.43006   0.27698 
 C                    -2.78639   0.93632   0.83405 
 C                     2.64563   0.72483   1.40793 
 H                     2.11523   2.09025   2.97834 
 H                     4.85305  -0.95179   0.04911 
 C                     1.65885   1.71141   2.04833 
 C                     3.00609  -1.10219  -1.1285 
 P                     1.79044  -0.00978  -0.13387 
 H                    -3.83308   1.28278   0.86945 
 C                     4.48935  -0.773    -0.9714 
 H                    -3.03691  -1.46617  -1.50113 
 H                    -5.36123  -1.04151  -0.61507 
 H                     5.06345  -1.43611  -1.64038 
 C                    -3.29011  -0.48901  -1.0723 
 H                     4.20031   2.0583    2.05244 
 C                    -0.45788  -1.4505   -1.54368 
 C                     3.93407   1.50694   1.13516 
 H                     1.60677  -1.1503   -2.83711 
 C                     2.6719   -1.00545  -2.61999 
 H                     4.78773   0.87148   0.88134 
 H                     3.2216   -1.80004  -3.15125 
 C                    -1.92285   1.91721   0.08836 
 N                    -0.71024   1.43814  -0.23078 
 C                    -4.79296  -0.26628  -1.14992 
 H                     1.47267   2.58347   1.40272 
 H                    -2.76328   0.25619  -1.68633 
 H                     4.72429   0.2627   -1.25565 
 H                    -5.10395   0.71542  -0.76198 
 C                     1.50339   1.51973  -1.19679 
 H                    -5.09863  -0.30768  -2.20601 
 H                     3.81196   2.25749   0.33881 
 C                     0.21171   2.20127  -0.84128 
 C                    -2.27711   3.22647  -0.21131 
 H                     2.99777  -0.04513  -3.04846 
 H                    -3.26828   3.60254   0.04629 
 H                     1.39553   1.1302   -2.2218 
 H                     2.34258   2.23139  -1.20519 
 C                    -0.07519   3.5325   -1.14509 
 C                    -1.33077   4.04526  -0.82928 
 H                     0.67756   4.15554  -1.63032 
 H                    -1.57484   5.0817   -1.06916 
 O                    -0.57489  -2.01038  -2.56711 
 O                    -0.78797   2.63034   2.041 
 H                    -0.65585   1.66952   2.05706 
 H                    -1.06184   2.9338    2.92067 
 
 Add virtual bond connecting atoms H64        and H20        Dist= 2.74D+00.

 GradGradGradGradGradGradGradGradGradGradGradGradGradGradGradGradGradGrad
 Berny optimization.
 Initialization pass.
                           ----------------------------
                           !    Initial Parameters    !
                           ! (Angstroms and Degrees)  !
 --------------------------                            --------------------------
 ! Name  Definition              Value          Derivative Info.                !
 --------------------------------------------------------------------------------
 ! R1    R(1,2)                  1.0995         estimate D2E/DX2                !
 ! R2    R(2,3)                  1.1005         estimate D2E/DX2                !
 ! R3    R(2,4)                  1.1012         estimate D2E/DX2                !
 ! R4    R(2,9)                  1.5133         estimate D2E/DX2                !
 ! R5    R(5,12)                 1.0993         estimate D2E/DX2                !
 ! R6    R(6,8)                  1.3047         estimate D2E/DX2                !
 ! R7    R(6,19)                 2.1121         estimate D2E/DX2                !
 ! R8    R(7,16)                 1.1            estimate D2E/DX2                !
 ! R9    R(9,11)                 1.1067         estimate D2E/DX2                !
 ! R10   R(9,15)                 1.0976         estimate D2E/DX2                !
 ! R11   R(9,21)                 1.4789         estimate D2E/DX2                !
 ! R12   R(10,12)                1.1031         estimate D2E/DX2                !
 ! R13   R(12,14)                1.1006         estimate D2E/DX2                !
 ! R14   R(12,23)                1.5302         estimate D2E/DX2                !
 ! R15   R(13,16)                1.0984         estimate D2E/DX2                !
 ! R16   R(16,17)                1.103          estimate D2E/DX2                !
 ! R17   R(16,27)                1.5331         estimate D2E/DX2                !
 ! R18   R(18,22)                1.1017         estimate D2E/DX2                !
 ! R19   R(19,28)                2.2965         estimate D2E/DX2                !
 ! R20   R(19,36)                1.8258         estimate D2E/DX2                !
 ! R21   R(19,43)                2.1435         estimate D2E/DX2                !
 ! R22   R(20,26)                1.0961         estimate D2E/DX2                !
 ! R23   R(20,64)                1.45           estimate D2E/DX2                !
 ! R24   R(21,22)                1.4797         estimate D2E/DX2                !
 ! R25   R(21,34)                1.4839         estimate D2E/DX2                !
 ! R26   R(22,29)                1.1031         estimate D2E/DX2                !
 ! R27   R(22,42)                1.5046         estimate D2E/DX2                !
 ! R28   R(23,26)                1.5353         estimate D2E/DX2                !
 ! R29   R(23,28)                1.91           estimate D2E/DX2                !
 ! R30   R(23,37)                1.5317         estimate D2E/DX2                !
 ! R31   R(24,26)                1.1031         estimate D2E/DX2                !
 ! R32   R(25,30)                1.098          estimate D2E/DX2                !
 ! R33   R(26,45)                1.1009         estimate D2E/DX2                !
 ! R34   R(27,28)                1.9132         estimate D2E/DX2                !
 ! R35   R(27,30)                1.5275         estimate D2E/DX2                !
 ! R36   R(27,39)                1.5315         estimate D2E/DX2                !
 ! R37   R(28,49)                1.8846         estimate D2E/DX2                !
 ! R38   R(30,33)                1.1031         estimate D2E/DX2                !
 ! R39   R(30,47)                1.0994         estimate D2E/DX2                !
 ! R40   R(31,34)                1.0967         estimate D2E/DX2                !
 ! R41   R(32,44)                1.1            estimate D2E/DX2                !
 ! R42   R(34,44)                1.5212         estimate D2E/DX2                !
 ! R43   R(34,46)                1.1            estimate D2E/DX2                !
 ! R44   R(35,37)                1.1029         estimate D2E/DX2                !
 ! R45   R(36,62)                1.1724         estimate D2E/DX2                !
 ! R46   R(37,40)                1.0941         estimate D2E/DX2                !
 ! R47   R(37,51)                1.1011         estimate D2E/DX2                !
 ! R48   R(38,39)                1.0966         estimate D2E/DX2                !
 ! R49   R(39,41)                1.1026         estimate D2E/DX2                !
 ! R50   R(39,54)                1.1009         estimate D2E/DX2                !
 ! R51   R(42,43)                1.3423         estimate D2E/DX2                !
 ! R52   R(42,53)                1.3891         estimate D2E/DX2                !
 ! R53   R(43,52)                1.3435         estimate D2E/DX2                !
 ! R54   R(44,48)                1.1004         estimate D2E/DX2                !
 ! R55   R(44,50)                1.1002         estimate D2E/DX2                !
 ! R56   R(49,52)                1.5031         estimate D2E/DX2                !
 ! R57   R(49,56)                1.1018         estimate D2E/DX2                !
 ! R58   R(49,57)                1.1004         estimate D2E/DX2                !
 ! R59   R(52,58)                1.3953         estimate D2E/DX2                !
 ! R60   R(53,55)                1.091          estimate D2E/DX2                !
 ! R61   R(53,59)                1.3957         estimate D2E/DX2                !
 ! R62   R(58,59)                1.3925         estimate D2E/DX2                !
 ! R63   R(58,60)                1.091          estimate D2E/DX2                !
 ! R64   R(59,61)                1.0915         estimate D2E/DX2                !
 ! R65   R(63,64)                0.97           estimate D2E/DX2                !
 ! R66   R(63,65)                0.97           estimate D2E/DX2                !
 ! A1    A(1,2,3)              107.6884         estimate D2E/DX2                !
 ! A2    A(1,2,4)              108.2098         estimate D2E/DX2                !
 ! A3    A(1,2,9)              109.2307         estimate D2E/DX2                !
 ! A4    A(3,2,4)              108.9101         estimate D2E/DX2                !
 ! A5    A(3,2,9)              112.9301         estimate D2E/DX2                !
 ! A6    A(4,2,9)              109.7478         estimate D2E/DX2                !
 ! A7    A(8,6,19)             101.765          estimate D2E/DX2                !
 ! A8    A(2,9,11)             110.9673         estimate D2E/DX2                !
 ! A9    A(2,9,15)             109.1906         estimate D2E/DX2                !
 ! A10   A(2,9,21)             113.0278         estimate D2E/DX2                !
 ! A11   A(11,9,15)            107.4171         estimate D2E/DX2                !
 ! A12   A(11,9,21)            109.7061         estimate D2E/DX2                !
 ! A13   A(15,9,21)            106.2733         estimate D2E/DX2                !
 ! A14   A(5,12,10)            108.1176         estimate D2E/DX2                !
 ! A15   A(5,12,14)            108.5954         estimate D2E/DX2                !
 ! A16   A(5,12,23)            111.4018         estimate D2E/DX2                !
 ! A17   A(10,12,14)           107.3348         estimate D2E/DX2                !
 ! A18   A(10,12,23)           109.3211         estimate D2E/DX2                !
 ! A19   A(14,12,23)           111.9167         estimate D2E/DX2                !
 ! A20   A(7,16,13)            107.2873         estimate D2E/DX2                !
 ! A21   A(7,16,17)            108.0122         estimate D2E/DX2                !
 ! A22   A(7,16,27)            111.8211         estimate D2E/DX2                !
 ! A23   A(13,16,17)           108.9158         estimate D2E/DX2                !
 ! A24   A(13,16,27)           111.486          estimate D2E/DX2                !
 ! A25   A(17,16,27)           109.2116         estimate D2E/DX2                !
 ! A26   A(6,19,28)             96.3051         estimate D2E/DX2                !
 ! A27   A(6,19,36)            161.0976         estimate D2E/DX2                !
 ! A28   A(6,19,43)             91.1332         estimate D2E/DX2                !
 ! A29   A(28,19,36)            93.4923         estimate D2E/DX2                !
 ! A30   A(28,19,43)            81.1814         estimate D2E/DX2                !
 ! A31   A(36,19,43)           106.3507         estimate D2E/DX2                !
 ! A32   A(26,20,64)           130.2958         estimate D2E/DX2                !
 ! A33   A(9,21,22)            108.8987         estimate D2E/DX2                !
 ! A34   A(9,21,34)            112.5204         estimate D2E/DX2                !
 ! A35   A(22,21,34)           110.3622         estimate D2E/DX2                !
 ! A36   A(18,22,21)           106.2801         estimate D2E/DX2                !
 ! A37   A(18,22,29)           107.963          estimate D2E/DX2                !
 ! A38   A(18,22,42)           107.7096         estimate D2E/DX2                !
 ! A39   A(21,22,29)           111.9149         estimate D2E/DX2                !
 ! A40   A(21,22,42)           111.8621         estimate D2E/DX2                !
 ! A41   A(29,22,42)           110.8378         estimate D2E/DX2                !
 ! A42   A(12,23,26)           109.212          estimate D2E/DX2                !
 ! A43   A(12,23,28)           107.7363         estimate D2E/DX2                !
 ! A44   A(12,23,37)           110.4185         estimate D2E/DX2                !
 ! A45   A(26,23,28)           107.2221         estimate D2E/DX2                !
 ! A46   A(26,23,37)           106.6668         estimate D2E/DX2                !
 ! A47   A(28,23,37)           115.4206         estimate D2E/DX2                !
 ! A48   A(20,26,23)           112.4283         estimate D2E/DX2                !
 ! A49   A(20,26,24)           107.8641         estimate D2E/DX2                !
 ! A50   A(20,26,45)           109.553          estimate D2E/DX2                !
 ! A51   A(23,26,24)           107.8456         estimate D2E/DX2                !
 ! A52   A(23,26,45)           111.9072         estimate D2E/DX2                !
 ! A53   A(24,26,45)           106.9991         estimate D2E/DX2                !
 ! A54   A(16,27,28)           105.5589         estimate D2E/DX2                !
 ! A55   A(16,27,30)           108.9512         estimate D2E/DX2                !
 ! A56   A(16,27,39)           109.3473         estimate D2E/DX2                !
 ! A57   A(28,27,30)           116.1348         estimate D2E/DX2                !
 ! A58   A(28,27,39)           109.3638         estimate D2E/DX2                !
 ! A59   A(30,27,39)           107.3641         estimate D2E/DX2                !
 ! A60   A(19,28,23)           116.9674         estimate D2E/DX2                !
 ! A61   A(19,28,27)           119.8775         estimate D2E/DX2                !
 ! A62   A(19,28,49)            98.0921         estimate D2E/DX2                !
 ! A63   A(23,28,27)           110.7788         estimate D2E/DX2                !
 ! A64   A(23,28,49)           102.2004         estimate D2E/DX2                !
 ! A65   A(27,28,49)           105.4841         estimate D2E/DX2                !
 ! A66   A(25,30,27)           112.4664         estimate D2E/DX2                !
 ! A67   A(25,30,33)           107.0598         estimate D2E/DX2                !
 ! A68   A(25,30,47)           108.8388         estimate D2E/DX2                !
 ! A69   A(27,30,33)           108.2676         estimate D2E/DX2                !
 ! A70   A(27,30,47)           112.5788         estimate D2E/DX2                !
 ! A71   A(33,30,47)           107.3547         estimate D2E/DX2                !
 ! A72   A(21,34,31)           107.176          estimate D2E/DX2                !
 ! A73   A(21,34,44)           116.7306         estimate D2E/DX2                !
 ! A74   A(21,34,46)           106.3971         estimate D2E/DX2                !
 ! A75   A(31,34,44)           109.7899         estimate D2E/DX2                !
 ! A76   A(31,34,46)           105.9482         estimate D2E/DX2                !
 ! A77   A(44,34,46)           110.2116         estimate D2E/DX2                !
 ! A78   A(23,37,35)           108.0728         estimate D2E/DX2                !
 ! A79   A(23,37,40)           113.6455         estimate D2E/DX2                !
 ! A80   A(23,37,51)           112.5544         estimate D2E/DX2                !
 ! A81   A(35,37,40)           107.156          estimate D2E/DX2                !
 ! A82   A(35,37,51)           106.7103         estimate D2E/DX2                !
 ! A83   A(40,37,51)           108.3401         estimate D2E/DX2                !
 ! A84   A(27,39,38)           113.3535         estimate D2E/DX2                !
 ! A85   A(27,39,41)           108.3556         estimate D2E/DX2                !
 ! A86   A(27,39,54)           111.6868         estimate D2E/DX2                !
 ! A87   A(38,39,41)           107.0757         estimate D2E/DX2                !
 ! A88   A(38,39,54)           109.0055         estimate D2E/DX2                !
 ! A89   A(41,39,54)           107.0689         estimate D2E/DX2                !
 ! A90   A(22,42,43)           113.8054         estimate D2E/DX2                !
 ! A91   A(22,42,53)           125.1007         estimate D2E/DX2                !
 ! A92   A(43,42,53)           121.031          estimate D2E/DX2                !
 ! A93   A(19,43,42)           116.2768         estimate D2E/DX2                !
 ! A94   A(19,43,52)           121.7417         estimate D2E/DX2                !
 ! A95   A(42,43,52)           121.6836         estimate D2E/DX2                !
 ! A96   A(32,44,34)           112.4806         estimate D2E/DX2                !
 ! A97   A(32,44,48)           108.1381         estimate D2E/DX2                !
 ! A98   A(32,44,50)           107.2584         estimate D2E/DX2                !
 ! A99   A(34,44,48)           113.0677         estimate D2E/DX2                !
 ! A100  A(34,44,50)           108.5381         estimate D2E/DX2                !
 ! A101  A(48,44,50)           107.0645         estimate D2E/DX2                !
 ! A102  A(28,49,52)           111.4377         estimate D2E/DX2                !
 ! A103  A(28,49,56)           104.636          estimate D2E/DX2                !
 ! A104  A(28,49,57)           114.3964         estimate D2E/DX2                !
 ! A105  A(52,49,56)           107.2298         estimate D2E/DX2                !
 ! A106  A(52,49,57)           111.342          estimate D2E/DX2                !
 ! A107  A(56,49,57)           107.2299         estimate D2E/DX2                !
 ! A108  A(43,52,49)           116.0797         estimate D2E/DX2                !
 ! A109  A(43,52,58)           119.985          estimate D2E/DX2                !
 ! A110  A(49,52,58)           123.9045         estimate D2E/DX2                !
 ! A111  A(42,53,55)           120.3765         estimate D2E/DX2                !
 ! A112  A(42,53,59)           118.396          estimate D2E/DX2                !
 ! A113  A(55,53,59)           121.2218         estimate D2E/DX2                !
 ! A114  A(52,58,59)           119.1659         estimate D2E/DX2                !
 ! A115  A(52,58,60)           119.9891         estimate D2E/DX2                !
 ! A116  A(59,58,60)           120.8437         estimate D2E/DX2                !
 ! A117  A(53,59,58)           119.7204         estimate D2E/DX2                !
 ! A118  A(53,59,61)           120.1838         estimate D2E/DX2                !
 ! A119  A(58,59,61)           120.095          estimate D2E/DX2                !
 ! A120  A(64,63,65)           109.4708         estimate D2E/DX2                !
 ! A121  A(20,64,63)           115.1622         estimate D2E/DX2                !
 ! A122  L(19,36,62,2,-1)      175.1241         estimate D2E/DX2                !
 ! A123  L(19,36,62,2,-2)      179.7128         estimate D2E/DX2                !
 ! D1    D(1,2,9,11)           -63.5047         estimate D2E/DX2                !
 ! D2    D(1,2,9,15)            54.7108         estimate D2E/DX2                !
 ! D3    D(1,2,9,21)           172.7669         estimate D2E/DX2                !
 ! D4    D(3,2,9,11)            56.2954         estimate D2E/DX2                !
 ! D5    D(3,2,9,15)           174.5109         estimate D2E/DX2                !
 ! D6    D(3,2,9,21)           -67.4329         estimate D2E/DX2                !
 ! D7    D(4,2,9,11)           178.0138         estimate D2E/DX2                !
 ! D8    D(4,2,9,15)           -63.7707         estimate D2E/DX2                !
 ! D9    D(4,2,9,21)            54.2854         estimate D2E/DX2                !
 ! D10   D(8,6,19,28)         -104.6831         estimate D2E/DX2                !
 ! D11   D(8,6,19,36)           16.104          estimate D2E/DX2                !
 ! D12   D(8,6,19,43)          174.0646         estimate D2E/DX2                !
 ! D13   D(2,9,21,22)         -175.7134         estimate D2E/DX2                !
 ! D14   D(2,9,21,34)           61.5968         estimate D2E/DX2                !
 ! D15   D(11,9,21,22)          59.8672         estimate D2E/DX2                !
 ! D16   D(11,9,21,34)         -62.8226         estimate D2E/DX2                !
 ! D17   D(15,9,21,22)         -55.9672         estimate D2E/DX2                !
 ! D18   D(15,9,21,34)        -178.657          estimate D2E/DX2                !
 ! D19   D(5,12,23,26)          61.7535         estimate D2E/DX2                !
 ! D20   D(5,12,23,28)         -54.3912         estimate D2E/DX2                !
 ! D21   D(5,12,23,37)         178.7416         estimate D2E/DX2                !
 ! D22   D(10,12,23,26)        -57.6757         estimate D2E/DX2                !
 ! D23   D(10,12,23,28)       -173.8204         estimate D2E/DX2                !
 ! D24   D(10,12,23,37)         59.3125         estimate D2E/DX2                !
 ! D25   D(14,12,23,26)       -176.4523         estimate D2E/DX2                !
 ! D26   D(14,12,23,28)         67.403          estimate D2E/DX2                !
 ! D27   D(14,12,23,37)        -59.4642         estimate D2E/DX2                !
 ! D28   D(7,16,27,28)         -61.1898         estimate D2E/DX2                !
 ! D29   D(7,16,27,30)          64.1941         estimate D2E/DX2                !
 ! D30   D(7,16,27,39)        -178.741          estimate D2E/DX2                !
 ! D31   D(13,16,27,28)         58.917          estimate D2E/DX2                !
 ! D32   D(13,16,27,30)       -175.6991         estimate D2E/DX2                !
 ! D33   D(13,16,27,39)        -58.6342         estimate D2E/DX2                !
 ! D34   D(17,16,27,28)        179.3214         estimate D2E/DX2                !
 ! D35   D(17,16,27,30)        -55.2947         estimate D2E/DX2                !
 ! D36   D(17,16,27,39)         61.7702         estimate D2E/DX2                !
 ! D37   D(6,19,28,23)          -7.8242         estimate D2E/DX2                !
 ! D38   D(6,19,28,27)         130.8848         estimate D2E/DX2                !
 ! D39   D(6,19,28,49)        -115.9945         estimate D2E/DX2                !
 ! D40   D(36,19,28,23)       -171.6344         estimate D2E/DX2                !
 ! D41   D(36,19,28,27)        -32.9254         estimate D2E/DX2                !
 ! D42   D(36,19,28,49)         80.1954         estimate D2E/DX2                !
 ! D43   D(43,19,28,23)         82.3473         estimate D2E/DX2                !
 ! D44   D(43,19,28,27)       -138.9438         estimate D2E/DX2                !
 ! D45   D(43,19,28,49)        -25.823          estimate D2E/DX2                !
 ! D46   D(6,19,43,42)         -68.1743         estimate D2E/DX2                !
 ! D47   D(6,19,43,52)         117.9965         estimate D2E/DX2                !
 ! D48   D(28,19,43,42)       -164.3795         estimate D2E/DX2                !
 ! D49   D(28,19,43,52)         21.7913         estimate D2E/DX2                !
 ! D50   D(36,19,43,42)        104.5476         estimate D2E/DX2                !
 ! D51   D(36,19,43,52)        -69.2817         estimate D2E/DX2                !
 ! D52   D(64,20,26,23)       -132.3346         estimate D2E/DX2                !
 ! D53   D(64,20,26,24)        108.8915         estimate D2E/DX2                !
 ! D54   D(64,20,26,45)         -7.24           estimate D2E/DX2                !
 ! D55   D(26,20,64,63)        -31.6309         estimate D2E/DX2                !
 ! D56   D(9,21,22,18)          50.0598         estimate D2E/DX2                !
 ! D57   D(9,21,22,29)         -67.5727         estimate D2E/DX2                !
 ! D58   D(9,21,22,42)         167.3587         estimate D2E/DX2                !
 ! D59   D(34,21,22,18)        174.0384         estimate D2E/DX2                !
 ! D60   D(34,21,22,29)         56.4058         estimate D2E/DX2                !
 ! D61   D(34,21,22,42)        -68.6628         estimate D2E/DX2                !
 ! D62   D(9,21,34,31)         -67.2224         estimate D2E/DX2                !
 ! D63   D(9,21,34,44)          56.3124         estimate D2E/DX2                !
 ! D64   D(9,21,34,46)         179.7771         estimate D2E/DX2                !
 ! D65   D(22,21,34,31)        170.9144         estimate D2E/DX2                !
 ! D66   D(22,21,34,44)        -65.5508         estimate D2E/DX2                !
 ! D67   D(22,21,34,46)         57.9138         estimate D2E/DX2                !
 ! D68   D(18,22,42,43)         75.0523         estimate D2E/DX2                !
 ! D69   D(18,22,42,53)       -102.0764         estimate D2E/DX2                !
 ! D70   D(21,22,42,43)        -41.3842         estimate D2E/DX2                !
 ! D71   D(21,22,42,53)        141.4871         estimate D2E/DX2                !
 ! D72   D(29,22,42,43)       -167.0468         estimate D2E/DX2                !
 ! D73   D(29,22,42,53)         15.8245         estimate D2E/DX2                !
 ! D74   D(12,23,26,20)        -59.0678         estimate D2E/DX2                !
 ! D75   D(12,23,26,24)         59.7169         estimate D2E/DX2                !
 ! D76   D(12,23,26,45)        177.1367         estimate D2E/DX2                !
 ! D77   D(28,23,26,20)         57.4044         estimate D2E/DX2                !
 ! D78   D(28,23,26,24)        176.189          estimate D2E/DX2                !
 ! D79   D(28,23,26,45)        -66.3911         estimate D2E/DX2                !
 ! D80   D(37,23,26,20)       -178.407          estimate D2E/DX2                !
 ! D81   D(37,23,26,24)        -59.6223         estimate D2E/DX2                !
 ! D82   D(37,23,26,45)         57.7976         estimate D2E/DX2                !
 ! D83   D(12,23,28,19)         73.0938         estimate D2E/DX2                !
 ! D84   D(12,23,28,27)        -69.173          estimate D2E/DX2                !
 ! D85   D(12,23,28,49)        178.8533         estimate D2E/DX2                !
 ! D86   D(26,23,28,19)        -44.3478         estimate D2E/DX2                !
 ! D87   D(26,23,28,27)        173.3854         estimate D2E/DX2                !
 ! D88   D(26,23,28,49)         61.4116         estimate D2E/DX2                !
 ! D89   D(37,23,28,19)       -163.0189         estimate D2E/DX2                !
 ! D90   D(37,23,28,27)         54.7143         estimate D2E/DX2                !
 ! D91   D(37,23,28,49)        -57.2594         estimate D2E/DX2                !
 ! D92   D(12,23,37,35)        -69.9302         estimate D2E/DX2                !
 ! D93   D(12,23,37,40)         48.8596         estimate D2E/DX2                !
 ! D94   D(12,23,37,51)        172.4868         estimate D2E/DX2                !
 ! D95   D(26,23,37,35)         48.6229         estimate D2E/DX2                !
 ! D96   D(26,23,37,40)        167.4127         estimate D2E/DX2                !
 ! D97   D(26,23,37,51)        -68.9601         estimate D2E/DX2                !
 ! D98   D(28,23,37,35)        167.6015         estimate D2E/DX2                !
 ! D99   D(28,23,37,40)        -73.6088         estimate D2E/DX2                !
 ! D100  D(28,23,37,51)         50.0184         estimate D2E/DX2                !
 ! D101  D(16,27,28,19)        -45.8152         estimate D2E/DX2                !
 ! D102  D(16,27,28,23)         95.205          estimate D2E/DX2                !
 ! D103  D(16,27,28,49)       -154.9388         estimate D2E/DX2                !
 ! D104  D(30,27,28,19)       -166.6204         estimate D2E/DX2                !
 ! D105  D(30,27,28,23)        -25.6002         estimate D2E/DX2                !
 ! D106  D(30,27,28,49)         84.256          estimate D2E/DX2                !
 ! D107  D(39,27,28,19)         71.7249         estimate D2E/DX2                !
 ! D108  D(39,27,28,23)       -147.2549         estimate D2E/DX2                !
 ! D109  D(39,27,28,49)        -37.3987         estimate D2E/DX2                !
 ! D110  D(16,27,30,25)        -53.7773         estimate D2E/DX2                !
 ! D111  D(16,27,30,33)         64.3098         estimate D2E/DX2                !
 ! D112  D(16,27,30,47)       -177.171          estimate D2E/DX2                !
 ! D113  D(28,27,30,25)         65.1943         estimate D2E/DX2                !
 ! D114  D(28,27,30,33)       -176.7186         estimate D2E/DX2                !
 ! D115  D(28,27,30,47)        -58.1994         estimate D2E/DX2                !
 ! D116  D(39,27,30,25)       -172.0961         estimate D2E/DX2                !
 ! D117  D(39,27,30,33)        -54.0089         estimate D2E/DX2                !
 ! D118  D(39,27,30,47)         64.5102         estimate D2E/DX2                !
 ! D119  D(16,27,39,38)         66.3074         estimate D2E/DX2                !
 ! D120  D(16,27,39,41)        -52.3939         estimate D2E/DX2                !
 ! D121  D(16,27,39,54)       -170.0888         estimate D2E/DX2                !
 ! D122  D(28,27,39,38)        -48.8261         estimate D2E/DX2                !
 ! D123  D(28,27,39,41)       -167.5274         estimate D2E/DX2                !
 ! D124  D(28,27,39,54)         74.7777         estimate D2E/DX2                !
 ! D125  D(30,27,39,38)       -175.6305         estimate D2E/DX2                !
 ! D126  D(30,27,39,41)         65.6682         estimate D2E/DX2                !
 ! D127  D(30,27,39,54)        -52.0266         estimate D2E/DX2                !
 ! D128  D(19,28,49,52)         33.6002         estimate D2E/DX2                !
 ! D129  D(19,28,49,56)        -81.9585         estimate D2E/DX2                !
 ! D130  D(19,28,49,57)        161.0023         estimate D2E/DX2                !
 ! D131  D(23,28,49,52)        -86.3582         estimate D2E/DX2                !
 ! D132  D(23,28,49,56)        158.0831         estimate D2E/DX2                !
 ! D133  D(23,28,49,57)         41.0439         estimate D2E/DX2                !
 ! D134  D(27,28,49,52)        157.7594         estimate D2E/DX2                !
 ! D135  D(27,28,49,56)         42.2007         estimate D2E/DX2                !
 ! D136  D(27,28,49,57)        -74.8385         estimate D2E/DX2                !
 ! D137  D(21,34,44,32)        -63.197          estimate D2E/DX2                !
 ! D138  D(21,34,44,48)         59.6517         estimate D2E/DX2                !
 ! D139  D(21,34,44,50)        178.2859         estimate D2E/DX2                !
 ! D140  D(31,34,44,32)         58.9848         estimate D2E/DX2                !
 ! D141  D(31,34,44,48)       -178.1665         estimate D2E/DX2                !
 ! D142  D(31,34,44,50)        -59.5323         estimate D2E/DX2                !
 ! D143  D(46,34,44,32)        175.3216         estimate D2E/DX2                !
 ! D144  D(46,34,44,48)        -61.8297         estimate D2E/DX2                !
 ! D145  D(46,34,44,50)         56.8045         estimate D2E/DX2                !
 ! D146  D(22,42,43,19)          9.3956         estimate D2E/DX2                !
 ! D147  D(22,42,43,52)       -176.7713         estimate D2E/DX2                !
 ! D148  D(53,42,43,19)       -173.3457         estimate D2E/DX2                !
 ! D149  D(53,42,43,52)          0.4874         estimate D2E/DX2                !
 ! D150  D(22,42,53,55)         -3.5237         estimate D2E/DX2                !
 ! D151  D(22,42,53,59)        175.615          estimate D2E/DX2                !
 ! D152  D(43,42,53,55)        179.5422         estimate D2E/DX2                !
 ! D153  D(43,42,53,59)         -1.3191         estimate D2E/DX2                !
 ! D154  D(19,43,52,49)         -3.8021         estimate D2E/DX2                !
 ! D155  D(19,43,52,58)        174.2598         estimate D2E/DX2                !
 ! D156  D(42,43,52,49)       -177.2985         estimate D2E/DX2                !
 ! D157  D(42,43,52,58)          0.7634         estimate D2E/DX2                !
 ! D158  D(28,49,52,43)        -22.3148         estimate D2E/DX2                !
 ! D159  D(28,49,52,58)        159.7079         estimate D2E/DX2                !
 ! D160  D(56,49,52,43)         91.6379         estimate D2E/DX2                !
 ! D161  D(56,49,52,58)        -86.3394         estimate D2E/DX2                !
 ! D162  D(57,49,52,43)       -151.3531         estimate D2E/DX2                !
 ! D163  D(57,49,52,58)         30.6696         estimate D2E/DX2                !
 ! D164  D(43,52,58,59)         -1.1361         estimate D2E/DX2                !
 ! D165  D(43,52,58,60)        179.2861         estimate D2E/DX2                !
 ! D166  D(49,52,58,59)        176.7664         estimate D2E/DX2                !
 ! D167  D(49,52,58,60)         -2.8114         estimate D2E/DX2                !
 ! D168  D(42,53,59,58)          0.9105         estimate D2E/DX2                !
 ! D169  D(42,53,59,61)       -179.4144         estimate D2E/DX2                !
 ! D170  D(55,53,59,58)       -179.9585         estimate D2E/DX2                !
 ! D171  D(55,53,59,61)         -0.2834         estimate D2E/DX2                !
 ! D172  D(52,58,59,53)          0.2844         estimate D2E/DX2                !
 ! D173  D(52,58,59,61)       -179.391          estimate D2E/DX2                !
 ! D174  D(60,58,59,53)        179.8584         estimate D2E/DX2                !
 ! D175  D(60,58,59,61)          0.183          estimate D2E/DX2                !
 ! D176  D(65,63,64,20)        -93.9002         estimate D2E/DX2                !
 --------------------------------------------------------------------------------
 Trust Radius=3.00D-01 FncErr=1.00D-07 GrdErr=1.00D-06 EigMax=2.50D+02 EigMin=1.00D-04
 Number of steps in this run=    375 maximum allowed number of steps=    390.
 GradGradGradGradGradGradGradGradGradGradGradGradGradGradGradGradGradGrad

 Stoichiometry    C20H37N2O4PRu(3)
 Framework group  C1[X(C20H37N2O4PRu)]
 Deg. of freedom   189
 Full point group                 C1      NOp   1
 Largest Abelian subgroup         C1      NOp   1
 Largest concise Abelian subgroup C1      NOp   1
                         Standard orientation:                         
 ---------------------------------------------------------------------
 Center     Atomic      Atomic             Coordinates (Angstroms)
 Number     Number       Type             X           Y           Z
 ---------------------------------------------------------------------
      1          1           0       -3.384597   -3.366556    2.095702
      2          6           0       -3.027828   -2.853559    1.191035
      3          1           0       -3.572153   -3.273620    0.331804
      4          1           0       -1.954409   -3.069509    1.073670
      5          1           0        2.008848   -0.531064    2.708455
      6          8           0       -0.496288   -0.106637    2.156463
      7          1           0        3.076286   -2.528640    0.883938
      8          8           0       -0.424008   -1.236292    2.805159
      9          6           0       -3.235225   -1.362892    1.348770
     10          1           0        3.274788    0.597635    3.258889
     11          1           0       -4.311553   -1.119517    1.432835
     12          6           0        2.914285    0.009529    2.398024
     13          1           0        1.859405   -2.991588   -0.315897
     14          1           0        3.695516   -0.725945    2.153112
     15          1           0       -2.749186   -1.026878    2.273769
     16          6           0        2.887177   -2.623161   -0.195588
     17          1           0        3.586052   -3.374720   -0.599760
     18          1           0       -2.439863    1.010057    1.582412
     19         44           0       -0.346009   -0.751388    0.150792
     20          1           0        0.655303    1.552073    1.992913
     21          7           0       -2.630024   -0.575472    0.252994
     22          6           0       -2.795319    0.864741    0.549794
     23          6           0        2.628364    0.950820    1.225926
     24          1           0        2.024026    2.559827    2.513465
     25          1           0        4.914302   -0.866999    0.225842
     26          6           0        1.598289    2.002415    1.662137
     27          6           0        3.096546   -1.293484   -0.929373
     28         15           0        1.827436   -0.081426   -0.167318
     29          1           0       -3.853003    1.175131    0.507235
     30          6           0        4.565202   -0.889666   -0.814975
     31          1           0       -2.923319   -1.929770   -1.310879
     32          1           0       -5.276931   -1.432333   -0.548667
     33          1           0        5.173149   -1.642986   -1.343889
     34          6           0       -3.215874   -0.900335   -1.071042
     35          1           0        4.126845    2.432707    1.637186
     36          6           0       -0.345757   -1.832144   -1.320747
     37          6           0        3.896357    1.714711    0.832424
     38          1           0        1.733286   -1.700446   -2.619244
     39          6           0        2.788796   -1.481443   -2.417844
     40          1           0        4.774636    1.073850    0.710389
     41          1           0        3.373842   -2.339761   -2.787697
     42          6           0       -1.948972    1.723104   -0.350656
     43          7           0       -0.715692    1.236563   -0.560603
     44          6           0       -4.723239   -0.748010   -1.208291
     45          1           0        1.397150    2.735421    0.865764
     46          1           0       -2.701082   -0.261374   -1.803588
     47          1           0        4.772583    0.084585   -1.280268
     48          1           0       -5.072886    0.276431   -1.010262
     49          6           0        1.512759    1.218204   -1.495301
     50          1           0       -5.006641   -0.991504   -2.243119
     51          1           0        3.766072    2.303119   -0.089102
     52          6           0        0.193303    1.907569   -1.287616
     53          6           0       -2.338786    2.942819   -0.888989
     54          1           0        3.092275   -0.604335   -3.009937
     55          1           0       -3.346294    3.324671   -0.717755
     56          1           0        1.437503    0.645161   -2.433369
     57          1           0        2.328868    1.945292   -1.622106
     58          6           0       -0.129816    3.150471   -1.833120
     59          6           0       -1.407044    3.668014   -1.633175
     60          1           0        0.612098    3.700702   -2.413697
     61          1           0       -1.679232    4.634355   -2.061450
     62          8           0       -0.424764   -2.572620   -2.226296
     63          8           0       -0.875933    2.818748    1.454187
     64          1           0       -0.713629    1.882091    1.647110
     65          1           0       -1.176546    3.267451    2.259923
 ---------------------------------------------------------------------
 Rotational constants (GHZ):           0.2194304           0.1497040           0.1292153
 General basis read from cards:  (5D, 7F)
 ======================================================================================================
                                       Pseudopotential Parameters
 ======================================================================================================
  Center     Atomic      Valence      Angular      Power
  Number     Number     Electrons     Momentum     of R      Exponent        Coefficient   SO-Coeffient
 ======================================================================================================
    1          1
                                   No pseudopotential on this center.
    2          6
                                   No pseudopotential on this center.
    3          1
                                   No pseudopotential on this center.
    4          1
                                   No pseudopotential on this center.
    5          1
                                   No pseudopotential on this center.
    6          8
                                   No pseudopotential on this center.
    7          1
                                   No pseudopotential on this center.
    8          8
                                   No pseudopotential on this center.
    9          6
                                   No pseudopotential on this center.
   10          1
                                   No pseudopotential on this center.
   11          1
                                   No pseudopotential on this center.
   12          6
                                   No pseudopotential on this center.
   13          1
                                   No pseudopotential on this center.
   14          1
                                   No pseudopotential on this center.
   15          1
                                   No pseudopotential on this center.
   16          6
                                   No pseudopotential on this center.
   17          1
                                   No pseudopotential on this center.
   18          1
                                   No pseudopotential on this center.
   19         44           16
                                      G and up 
                                                     2        1.0000000        0.00000000    0.00000000
                                      S - G
                                                     2       11.1052690      209.82297100    0.00000000
                                                     2        5.4147450       30.65472600    0.00000000
                                      P - G
                                                     2        9.7712710      146.33618200    0.00000000
                                                     2        5.0739910       24.12787700    0.00000000
                                      D - G
                                                     2        7.6714230       67.51589700    0.00000000
                                                     2        4.1365650        9.87010400    0.00000000
                                      F - G
                                                     2       11.3600000      -28.34061600    0.00000000
                                                     2        5.6800000       -4.94462900    0.00000000
   20          1
                                   No pseudopotential on this center.
   21          7
                                   No pseudopotential on this center.
   22          6
                                   No pseudopotential on this center.
   23          6
                                   No pseudopotential on this center.
   24          1
                                   No pseudopotential on this center.
   25          1
                                   No pseudopotential on this center.
   26          6
                                   No pseudopotential on this center.
   27          6
                                   No pseudopotential on this center.
   28         15
                                   No pseudopotential on this center.
   29          1
                                   No pseudopotential on this center.
   30          6
                                   No pseudopotential on this center.
   31          1
                                   No pseudopotential on this center.
   32          1
                                   No pseudopotential on this center.
   33          1
                                   No pseudopotential on this center.
   34          6
                                   No pseudopotential on this center.
   35          1
                                   No pseudopotential on this center.
   36          6
                                   No pseudopotential on this center.
   37          6
                                   No pseudopotential on this center.
   38          1
                                   No pseudopotential on this center.
   39          6
                                   No pseudopotential on this center.
   40          1
                                   No pseudopotential on this center.
   41          1
                                   No pseudopotential on this center.
   42          6
                                   No pseudopotential on this center.
   43          7
                                   No pseudopotential on this center.
   44          6
                                   No pseudopotential on this center.
   45          1
                                   No pseudopotential on this center.
   46          1
                                   No pseudopotential on this center.
   47          1
                                   No pseudopotential on this center.
   48          1
                                   No pseudopotential on this center.
   49          6
                                   No pseudopotential on this center.
   50          1
                                   No pseudopotential on this center.
   51          1
                                   No pseudopotential on this center.
   52          6
                                   No pseudopotential on this center.
   53          6
                                   No pseudopotential on this center.
   54          1
                                   No pseudopotential on this center.
   55          1
                                   No pseudopotential on this center.
   56          1
                                   No pseudopotential on this center.
   57          1
                                   No pseudopotential on this center.
   58          6
                                   No pseudopotential on this center.
   59          6
                                   No pseudopotential on this center.
   60          1
                                   No pseudopotential on this center.
   61          1
                                   No pseudopotential on this center.
   62          8
                                   No pseudopotential on this center.
   63          8
                                   No pseudopotential on this center.
   64          1
                                   No pseudopotential on this center.
   65          1
                                   No pseudopotential on this center.
 ======================================================================================================
 There are   633 symmetry adapted cartesian basis functions of A   symmetry.
 There are   603 symmetry adapted basis functions of A   symmetry.
   603 basis functions,  1253 primitive gaussians,   633 cartesian basis functions
   118 alpha electrons      116 beta electrons
       nuclear repulsion energy      3707.9772352948 Hartrees.
 NAtoms=   65 NActive=   65 NUniq=   65 SFac= 1.00D+00 NAtFMM=   60 NAOKFM=T Big=T
 Integral buffers will be    131072 words long.
 Raffenetti 2 integral format.
 Two-electron integral symmetry is turned on.
 Nuclear repulsion after empirical dispersion term =     3707.8743979006 Hartrees.
 One-electron integrals computed using PRISM.
   1 Symmetry operations used in ECPInt.
 ECPInt:  NShTT=   41905 NPrTT=  295175 LenC2=   38835 LenP2D=  147798.
 LDataN:  DoStor=T MaxTD1= 6 Len=  172
 Number of processors reduced to  13 by ecpmxn.
 NBasis=   603 RedAO= T EigKep=  4.19D-04  NBF=   603
 NBsUse=   603 1.00D-06 EigRej= -1.00D+00 NBFU=   603
 Defaulting to unpruned grid for atomic number  44.
 ExpMin= 1.60D-02 ExpMax= 9.48D+04 ExpMxC= 3.24D+03 IAcc=3 IRadAn=         5 AccDes= 0.00D+00
 Harris functional with IExCor= 1009 and IRadAn=       5 diagonalized for initial guess.
 HarFok:  IExCor= 1009 AccDes= 0.00D+00 IRadAn=         5 IDoV= 1 UseB2=F ITyADJ=14
 ICtDFT=  3500011 ScaDFX=  1.000000  1.000000  1.000000  1.000000
 Defaulting to unpruned grid for atomic number  44.
 FoFCou: FMM=F IPFlag=           0 FMFlag=      100000 FMFlg1=        2001
         NFxFlg=           0 DoJE=T BraDBF=F KetDBF=T FulRan=T
         wScrn=  0.000000 ICntrl=       500 IOpCl=  0 I1Cent=   200000004 NGrid=           0
         NMat0=    1 NMatS0=      1 NMatT0=    0 NMatD0=    1 NMtDS0=    0 NMtDT0=    0
 Petite list used in FoFCou.
 Initial guess <Sx>= 0.0000 <Sy>= 0.0000 <Sz>= 1.0000 <S**2>= 2.0000 S= 1.0000
 Requested convergence on RMS density matrix=1.00D-08 within 128 cycles.
 Requested convergence on MAX density matrix=1.00D-06.
 Requested convergence on             energy=1.00D-06.
 No special actions if energy rises.
 Defaulting to unpruned grid for atomic number  44.
 Defaulting to unpruned grid for atomic number  44.
 Defaulting to unpruned grid for atomic number  44.
 Defaulting to unpruned grid for atomic number  44.
 Defaulting to unpruned grid for atomic number  44.
 Defaulting to unpruned grid for atomic number  44.
 Defaulting to unpruned grid for atomic number  44.
 Defaulting to unpruned grid for atomic number  44.
 Defaulting to unpruned grid for atomic number  44.
 Defaulting to unpruned grid for atomic number  44.
 Defaulting to unpruned grid for atomic number  44.
 Defaulting to unpruned grid for atomic number  44.
 Defaulting to unpruned grid for atomic number  44.
 Defaulting to unpruned grid for atomic number  44.
 Defaulting to unpruned grid for atomic number  44.
 Defaulting to unpruned grid for atomic number  44.
 Defaulting to unpruned grid for atomic number  44.
 Defaulting to unpruned grid for atomic number  44.
 Defaulting to unpruned grid for atomic number  44.
 Defaulting to unpruned grid for atomic number  44.
 EnCoef did    23 forward-backward iterations
 EnCoef did   100 forward-backward iterations
 EnCoef did     2 forward-backward iterations
 Restarting incremental Fock formation.
 SCF Done:  E(UPBE1PBE) =  -1629.64398160     A.U. after   29 cycles
            NFock= 29  Conv=0.27D-08     -V/T= 2.0443
 <Sx>= 0.0000 <Sy>= 0.0000 <Sz>= 1.0000 <S**2>= 2.0125 S= 1.0042
 <L.S>= 0.000000000000E+00
 Annihilation of the first spin contaminant:
 S**2 before annihilation     2.0125,   after     2.0001

 **********************************************************************

            Population analysis using the SCF density.

 **********************************************************************

 Orbital symmetries:
 Alpha Orbitals:
       Occupied  (A) (A) (A) (A) (A) (A) (A) (A) (A) (A) (A) (A)
                 (A) (A) (A) (A) (A) (A) (A) (A) (A) (A) (A) (A)
                 (A) (A) (A) (A) (A) (A) (A) (A) (A) (A) (A) (A)
                 (A) (A) (A) (A) (A) (A) (A) (A) (A) (A) (A) (A)
                 (A) (A) (A) (A) (A) (A) (A) (A) (A) (A) (A) (A)
                 (A) (A) (A) (A) (A) (A) (A) (A) (A) (A) (A) (A)
                 (A) (A) (A) (A) (A) (A) (A) (A) (A) (A) (A) (A)
                 (A) (A) (A) (A) (A) (A) (A) (A) (A) (A) (A) (A)
                 (A) (A) (A) (A) (A) (A) (A) (A) (A) (A) (A) (A)
                 (A) (A) (A) (A) (A) (A) (A) (A) (A) (A)
       Virtual   (A) (A) (A) (A) (A) (A) (A) (A) (A) (A) (A) (A)
                 (A) (A) (A) (A) (A) (A) (A) (A) (A) (A) (A) (A)
                 (A) (A) (A) (A) (A) (A) (A) (A) (A) (A) (A) (A)
                 (A) (A) (A) (A) (A) (A) (A) (A) (A) (A) (A) (A)
                 (A) (A) (A) (A) (A) (A) (A) (A) (A) (A) (A) (A)
                 (A) (A) (A) (A) (A) (A) (A) (A) (A) (A) (A) (A)
                 (A) (A) (A) (A) (A) (A) (A) (A) (A) (A) (A) (A)
                 (A) (A) (A) (A) (A) (A) (A) (A) (A) (A) (A) (A)
                 (A) (A) (A) (A) (A) (A) (A) (A) (A) (A) (A) (A)
                 (A) (A) (A) (A) (A) (A) (A) (A) (A) (A) (A) (A)
                 (A) (A) (A) (A) (A) (A) (A) (A) (A) (A) (A) (A)
                 (A) (A) (A) (A) (A) (A) (A) (A) (A) (A) (A) (A)
                 (A) (A) (A) (A) (A) (A) (A) (A) (A) (A) (A) (A)
                 (A) (A) (A) (A) (A) (A) (A) (A) (A) (A) (A) (A)
                 (A) (A) (A) (A) (A) (A) (A) (A) (A) (A) (A) (A)
                 (A) (A) (A) (A) (A) (A) (A) (A) (A) (A) (A) (A)
                 (A) (A) (A) (A) (A) (A) (A) (A) (A) (A) (A) (A)
                 (A) (A) (A) (A) (A) (A) (A) (A) (A) (A) (A) (A)
                 (A) (A) (A) (A) (A) (A) (A) (A) (A) (A) (A) (A)
                 (A) (A) (A) (A) (A) (A) (A) (A) (A) (A) (A) (A)
                 (A) (A) (A) (A) (A) (A) (A) (A) (A) (A) (A) (A)
                 (A) (A) (A) (A) (A) (A) (A) (A) (A) (A) (A) (A)
                 (A) (A) (A) (A) (A) (A) (A) (A) (A) (A) (A) (A)
                 (A) (A) (A) (A) (A) (A) (A) (A) (A) (A) (A) (A)
                 (A) (A) (A) (A) (A) (A) (A) (A) (A) (A) (A) (A)
                 (A) (A) (A) (A) (A) (A) (A) (A) (A) (A) (A) (A)
                 (A) (A) (A) (A) (A) (A) (A) (A) (A) (A) (A) (A)
                 (A) (A) (A) (A) (A) (A) (A) (A) (A) (A) (A) (A)
                 (A) (A) (A) (A) (A) (A) (A) (A) (A) (A) (A) (A)
                 (A) (A) (A) (A) (A) (A) (A) (A) (A) (A) (A) (A)
                 (A) (A) (A) (A) (A) (A) (A) (A) (A) (A) (A) (A)
                 (A) (A) (A) (A) (A) (A) (A) (A) (A) (A) (A) (A)
                 (A) (A) (A) (A) (A) (A) (A) (A) (A) (A) (A) (A)
                 (A) (A) (A) (A) (A) (A) (A) (A) (A) (A) (A) (A)
                 (A) (A) (A) (A) (A) (A) (A) (A) (A) (A) (A) (A)
                 (A) (A) (A) (A) (A) (A) (A) (A) (A) (A) (A) (A)
                 (A) (A) (A) (A) (A) (A) (A) (A) (A) (A) (A) (A)
                 (A) (A) (A) (A) (A) (A) (A) (A) (A) (A) (A) (A)
                 (A) (A) (A) (A) (A) (A) (A) (A) (A) (A) (A) (A)
                 (A) (A) (A) (A) (A) (A) (A) (A) (A) (A) (A) (A)
                 (A) (A) (A) (A) (A)
 Beta  Orbitals:
       Occupied  (A) (A) (A) (A) (A) (A) (A) (A) (A) (A) (A) (A)
                 (A) (A) (A) (A) (A) (A) (A) (A) (A) (A) (A) (A)
                 (A) (A) (A) (A) (A) (A) (A) (A) (A) (A) (A) (A)
                 (A) (A) (A) (A) (A) (A) (A) (A) (A) (A) (A) (A)
                 (A) (A) (A) (A) (A) (A) (A) (A) (A) (A) (A) (A)
                 (A) (A) (A) (A) (A) (A) (A) (A) (A) (A) (A) (A)
                 (A) (A) (A) (A) (A) (A) (A) (A) (A) (A) (A) (A)
                 (A) (A) (A) (A) (A) (A) (A) (A) (A) (A) (A) (A)
                 (A) (A) (A) (A) (A) (A) (A) (A) (A) (A) (A) (A)
                 (A) (A) (A) (A) (A) (A) (A) (A)
       Virtual   (A) (A) (A) (A) (A) (A) (A) (A) (A) (A) (A) (A)
                 (A) (A) (A) (A) (A) (A) (A) (A) (A) (A) (A) (A)
                 (A) (A) (A) (A) (A) (A) (A) (A) (A) (A) (A) (A)
                 (A) (A) (A) (A) (A) (A) (A) (A) (A) (A) (A) (A)
                 (A) (A) (A) (A) (A) (A) (A) (A) (A) (A) (A) (A)
                 (A) (A) (A) (A) (A) (A) (A) (A) (A) (A) (A) (A)
                 (A) (A) (A) (A) (A) (A) (A) (A) (A) (A) (A) (A)
                 (A) (A) (A) (A) (A) (A) (A) (A) (A) (A) (A) (A)
                 (A) (A) (A) (A) (A) (A) (A) (A) (A) (A) (A) (A)
                 (A) (A) (A) (A) (A) (A) (A) (A) (A) (A) (A) (A)
                 (A) (A) (A) (A) (A) (A) (A) (A) (A) (A) (A) (A)
                 (A) (A) (A) (A) (A) (A) (A) (A) (A) (A) (A) (A)
                 (A) (A) (A) (A) (A) (A) (A) (A) (A) (A) (A) (A)
                 (A) (A) (A) (A) (A) (A) (A) (A) (A) (A) (A) (A)
                 (A) (A) (A) (A) (A) (A) (A) (A) (A) (A) (A) (A)
                 (A) (A) (A) (A) (A) (A) (A) (A) (A) (A) (A) (A)
                 (A) (A) (A) (A) (A) (A) (A) (A) (A) (A) (A) (A)
                 (A) (A) (A) (A) (A) (A) (A) (A) (A) (A) (A) (A)
                 (A) (A) (A) (A) (A) (A) (A) (A) (A) (A) (A) (A)
                 (A) (A) (A) (A) (A) (A) (A) (A) (A) (A) (A) (A)
                 (A) (A) (A) (A) (A) (A) (A) (A) (A) (A) (A) (A)
                 (A) (A) (A) (A) (A) (A) (A) (A) (A) (A) (A) (A)
                 (A) (A) (A) (A) (A) (A) (A) (A) (A) (A) (A) (A)
                 (A) (A) (A) (A) (A) (A) (A) (A) (A) (A) (A) (A)
                 (A) (A) (A) (A) (A) (A) (A) (A) (A) (A) (A) (A)
                 (A) (A) (A) (A) (A) (A) (A) (A) (A) (A) (A) (A)
                 (A) (A) (A) (A) (A) (A) (A) (A) (A) (A) (A) (A)
                 (A) (A) (A) (A) (A) (A) (A) (A) (A) (A) (A) (A)
                 (A) (A) (A) (A) (A) (A) (A) (A) (A) (A) (A) (A)
                 (A) (A) (A) (A) (A) (A) (A) (A) (A) (A) (A) (A)
                 (A) (A) (A) (A) (A) (A) (A) (A) (A) (A) (A) (A)
                 (A) (A) (A) (A) (A) (A) (A) (A) (A) (A) (A) (A)
                 (A) (A) (A) (A) (A) (A) (A) (A) (A) (A) (A) (A)
                 (A) (A) (A) (A) (A) (A) (A) (A) (A) (A) (A) (A)
                 (A) (A) (A) (A) (A) (A) (A) (A) (A) (A) (A) (A)
                 (A) (A) (A) (A) (A) (A) (A) (A) (A) (A) (A) (A)
                 (A) (A) (A) (A) (A) (A) (A) (A) (A) (A) (A) (A)
                 (A) (A) (A) (A) (A) (A) (A) (A) (A) (A) (A) (A)
                 (A) (A) (A) (A) (A) (A) (A) (A) (A) (A) (A) (A)
                 (A) (A) (A) (A) (A) (A) (A) (A) (A) (A) (A) (A)
                 (A) (A) (A) (A) (A) (A) (A)
 The electronic state is 3-A.
 Alpha  occ. eigenvalues --  -77.25084 -19.24487 -19.23118 -19.22486 -19.19956
 Alpha  occ. eigenvalues --  -14.44023 -14.42916 -10.29506 -10.29291 -10.29053
 Alpha  occ. eigenvalues --  -10.27542 -10.26294 -10.26267 -10.25779 -10.25721
 Alpha  occ. eigenvalues --  -10.25334 -10.25199 -10.25104 -10.25074 -10.23465
 Alpha  occ. eigenvalues --  -10.22804 -10.22388 -10.22310 -10.21738 -10.21528
 Alpha  occ. eigenvalues --  -10.21434 -10.20715  -6.62944  -4.76608  -4.76525
 Alpha  occ. eigenvalues --   -4.76228  -3.01891  -1.86204  -1.84993  -1.84506
 Alpha  occ. eigenvalues --   -1.14745  -1.09424  -1.03098  -1.00197  -0.97268
 Alpha  occ. eigenvalues --   -0.85224  -0.83987  -0.83623  -0.82737  -0.78826
 Alpha  occ. eigenvalues --   -0.78045  -0.77438  -0.74597  -0.71214  -0.70899
 Alpha  occ. eigenvalues --   -0.70344  -0.69741  -0.69396  -0.66862  -0.66045
 Alpha  occ. eigenvalues --   -0.63621  -0.62286  -0.58512  -0.56501  -0.55463
 Alpha  occ. eigenvalues --   -0.54133  -0.53795  -0.53513  -0.52045  -0.51756
 Alpha  occ. eigenvalues --   -0.50277  -0.48737  -0.48418  -0.46965  -0.46615
 Alpha  occ. eigenvalues --   -0.46028  -0.45742  -0.45459  -0.45023  -0.44451
 Alpha  occ. eigenvalues --   -0.44305  -0.44182  -0.43678  -0.43182  -0.43030
 Alpha  occ. eigenvalues --   -0.42704  -0.42361  -0.42084  -0.41492  -0.40770
 Alpha  occ. eigenvalues --   -0.40722  -0.40415  -0.40102  -0.39358  -0.39163
 Alpha  occ. eigenvalues --   -0.38857  -0.38279  -0.38100  -0.37219  -0.37040
 Alpha  occ. eigenvalues --   -0.36906  -0.36564  -0.36007  -0.35447  -0.35386
 Alpha  occ. eigenvalues --   -0.34658  -0.34430  -0.34353  -0.33554  -0.33251
 Alpha  occ. eigenvalues --   -0.32515  -0.31877  -0.31624  -0.29858  -0.29443
 Alpha  occ. eigenvalues --   -0.27274  -0.25893  -0.24855  -0.21834  -0.21340
 Alpha  occ. eigenvalues --   -0.20601  -0.19769  -0.13513
 Alpha virt. eigenvalues --   -0.03774  -0.02026   0.00800   0.01098   0.02871
 Alpha virt. eigenvalues --    0.03610   0.04167   0.04723   0.06004   0.07134
 Alpha virt. eigenvalues --    0.07475   0.07574   0.08460   0.08803   0.09225
 Alpha virt. eigenvalues --    0.09550   0.10140   0.10343   0.11056   0.11161
 Alpha virt. eigenvalues --    0.11671   0.12378   0.12563   0.12839   0.13054
 Alpha virt. eigenvalues --    0.13502   0.14040   0.14203   0.14807   0.15042
 Alpha virt. eigenvalues --    0.15262   0.15577   0.15752   0.16077   0.16269
 Alpha virt. eigenvalues --    0.16764   0.17490   0.17882   0.18294   0.18604
 Alpha virt. eigenvalues --    0.18796   0.19022   0.19553   0.19860   0.20233
 Alpha virt. eigenvalues --    0.20338   0.20811   0.21225   0.21371   0.21682
 Alpha virt. eigenvalues --    0.22151   0.22395   0.22720   0.23356   0.23678
 Alpha virt. eigenvalues --    0.23829   0.24695   0.24817   0.25239   0.25793
 Alpha virt. eigenvalues --    0.25978   0.26840   0.26933   0.27767   0.28086
 Alpha virt. eigenvalues --    0.28934   0.29483   0.30410   0.30624   0.31591
 Alpha virt. eigenvalues --    0.32879   0.33473   0.33784   0.34654   0.35632
 Alpha virt. eigenvalues --    0.36178   0.37669   0.38944   0.39650   0.41616
 Alpha virt. eigenvalues --    0.41969   0.42739   0.43762   0.44029   0.44329
 Alpha virt. eigenvalues --    0.44540   0.45393   0.45860   0.46859   0.47511
 Alpha virt. eigenvalues --    0.48059   0.48905   0.49213   0.50002   0.50546
 Alpha virt. eigenvalues --    0.50896   0.51536   0.51905   0.52603   0.53773
 Alpha virt. eigenvalues --    0.54129   0.54678   0.55092   0.55215   0.56135
 Alpha virt. eigenvalues --    0.56664   0.57222   0.57811   0.57974   0.58635
 Alpha virt. eigenvalues --    0.59220   0.59613   0.60395   0.60811   0.61062
 Alpha virt. eigenvalues --    0.61721   0.62179   0.62696   0.63046   0.63119
 Alpha virt. eigenvalues --    0.63347   0.63853   0.63999   0.64180   0.64587
 Alpha virt. eigenvalues --    0.65041   0.65109   0.65269   0.65619   0.66208
 Alpha virt. eigenvalues --    0.66569   0.66775   0.67185   0.67250   0.67576
 Alpha virt. eigenvalues --    0.68264   0.68439   0.68721   0.69426   0.69695
 Alpha virt. eigenvalues --    0.70164   0.70231   0.70373   0.70790   0.71056
 Alpha virt. eigenvalues --    0.71528   0.71997   0.72407   0.72538   0.73099
 Alpha virt. eigenvalues --    0.73690   0.74012   0.74834   0.75067   0.75388
 Alpha virt. eigenvalues --    0.75632   0.76166   0.76719   0.77367   0.77564
 Alpha virt. eigenvalues --    0.78102   0.78245   0.78939   0.79819   0.80376
 Alpha virt. eigenvalues --    0.80599   0.81232   0.81733   0.82256   0.83049
 Alpha virt. eigenvalues --    0.83271   0.83888   0.84608   0.85067   0.85793
 Alpha virt. eigenvalues --    0.86228   0.86777   0.86967   0.87485   0.88909
 Alpha virt. eigenvalues --    0.89649   0.89939   0.90346   0.90791   0.91391
 Alpha virt. eigenvalues --    0.91767   0.92971   0.94200   0.94856   0.95470
 Alpha virt. eigenvalues --    0.96296   0.96707   0.97388   0.97949   0.98755
 Alpha virt. eigenvalues --    0.99129   0.99958   1.00482   1.00822   1.01520
 Alpha virt. eigenvalues --    1.03478   1.03981   1.04764   1.05264   1.05860
 Alpha virt. eigenvalues --    1.06453   1.07961   1.09245   1.09972   1.10470
 Alpha virt. eigenvalues --    1.10911   1.11130   1.12472   1.12999   1.13550
 Alpha virt. eigenvalues --    1.14772   1.15947   1.16679   1.17448   1.18430
 Alpha virt. eigenvalues --    1.19415   1.20414   1.21037   1.21513   1.22297
 Alpha virt. eigenvalues --    1.23049   1.23929   1.25687   1.26008   1.26373
 Alpha virt. eigenvalues --    1.27567   1.29373   1.29557   1.29914   1.30559
 Alpha virt. eigenvalues --    1.31267   1.32476   1.33371   1.33759   1.34278
 Alpha virt. eigenvalues --    1.34582   1.35159   1.35749   1.36561   1.37388
 Alpha virt. eigenvalues --    1.38142   1.38856   1.39393   1.40103   1.40486
 Alpha virt. eigenvalues --    1.41588   1.41761   1.42250   1.43241   1.43490
 Alpha virt. eigenvalues --    1.43851   1.44601   1.44935   1.45491   1.45891
 Alpha virt. eigenvalues --    1.46263   1.46429   1.47863   1.48444   1.49442
 Alpha virt. eigenvalues --    1.49809   1.50325   1.50563   1.51936   1.52629
 Alpha virt. eigenvalues --    1.53109   1.53767   1.54358   1.54522   1.55079
 Alpha virt. eigenvalues --    1.55343   1.56104   1.56746   1.56950   1.58324
 Alpha virt. eigenvalues --    1.59090   1.59736   1.61277   1.62198   1.62415
 Alpha virt. eigenvalues --    1.62527   1.62883   1.63162   1.63640   1.64286
 Alpha virt. eigenvalues --    1.64615   1.64954   1.65776   1.66220   1.66737
 Alpha virt. eigenvalues --    1.67284   1.67367   1.68204   1.68842   1.69369
 Alpha virt. eigenvalues --    1.69614   1.69861   1.70639   1.71015   1.71188
 Alpha virt. eigenvalues --    1.71572   1.71862   1.72221   1.73403   1.73717
 Alpha virt. eigenvalues --    1.74042   1.74403   1.74952   1.75026   1.75439
 Alpha virt. eigenvalues --    1.75845   1.75970   1.76540   1.76836   1.77187
 Alpha virt. eigenvalues --    1.77774   1.78382   1.79010   1.79416   1.79599
 Alpha virt. eigenvalues --    1.79969   1.80246   1.80921   1.81584   1.82193
 Alpha virt. eigenvalues --    1.82944   1.83073   1.83993   1.85199   1.85721
 Alpha virt. eigenvalues --    1.85890   1.86259   1.86769   1.87137   1.87851
 Alpha virt. eigenvalues --    1.88357   1.88423   1.89124   1.89891   1.90840
 Alpha virt. eigenvalues --    1.90930   1.91958   1.92674   1.93210   1.93547
 Alpha virt. eigenvalues --    1.94414   1.94935   1.96155   1.97940   1.98446
 Alpha virt. eigenvalues --    1.99074   1.99950   2.00551   2.00826   2.01385
 Alpha virt. eigenvalues --    2.02080   2.02727   2.03041   2.03719   2.04588
 Alpha virt. eigenvalues --    2.05516   2.06017   2.06298   2.06893   2.07141
 Alpha virt. eigenvalues --    2.08249   2.08661   2.08948   2.09655   2.09811
 Alpha virt. eigenvalues --    2.11343   2.11931   2.12818   2.13706   2.14602
 Alpha virt. eigenvalues --    2.15480   2.15603   2.16767   2.17072   2.17976
 Alpha virt. eigenvalues --    2.18273   2.20338   2.20668   2.22133   2.23004
 Alpha virt. eigenvalues --    2.23550   2.24138   2.25233   2.25633   2.26142
 Alpha virt. eigenvalues --    2.27124   2.27543   2.28179   2.29414   2.29605
 Alpha virt. eigenvalues --    2.30459   2.31003   2.32467   2.35288   2.36149
 Alpha virt. eigenvalues --    2.38214   2.39814   2.40171   2.41122   2.41383
 Alpha virt. eigenvalues --    2.41761   2.41915   2.42466   2.43045   2.44178
 Alpha virt. eigenvalues --    2.44668   2.44899   2.45763   2.46265   2.46570
 Alpha virt. eigenvalues --    2.47397   2.48065   2.48568   2.49032   2.50175
 Alpha virt. eigenvalues --    2.50433   2.51524   2.51732   2.52280   2.53113
 Alpha virt. eigenvalues --    2.53782   2.54279   2.54739   2.56028   2.56126
 Alpha virt. eigenvalues --    2.56897   2.57371   2.57904   2.58352   2.58733
 Alpha virt. eigenvalues --    2.59316   2.60587   2.61259   2.62023   2.63610
 Alpha virt. eigenvalues --    2.65361   2.65951   2.66540   2.67357   2.67661
 Alpha virt. eigenvalues --    2.68317   2.69474   2.70662   2.71696   2.71758
 Alpha virt. eigenvalues --    2.72458   2.72940   2.73996   2.75796   2.76642
 Alpha virt. eigenvalues --    2.78672   2.80126   2.81982   2.82491   2.83913
 Alpha virt. eigenvalues --    2.85354   2.93388   2.98149   3.01497   3.04786
 Alpha virt. eigenvalues --    3.12877   3.13788   3.14571   3.16274   3.23532
 Alpha virt. eigenvalues --    3.27692   3.50791   3.59848   3.64508   3.82559
 Alpha virt. eigenvalues --    4.05836  34.74684  35.05666  35.06867  46.03525
  Beta  occ. eigenvalues --  -77.25089 -19.23158 -19.23054 -19.20533 -19.19954
  Beta  occ. eigenvalues --  -14.44016 -14.42711 -10.29502 -10.29278 -10.29073
  Beta  occ. eigenvalues --  -10.27527 -10.26280 -10.26266 -10.25784 -10.25722
  Beta  occ. eigenvalues --  -10.25335 -10.25198 -10.25104 -10.25082 -10.23465
  Beta  occ. eigenvalues --  -10.22805 -10.22389 -10.22309 -10.21725 -10.21515
  Beta  occ. eigenvalues --  -10.21433 -10.20700  -6.62951  -4.76606  -4.76530
  Beta  occ. eigenvalues --   -4.76246  -2.99389  -1.84270  -1.82843  -1.80057
  Beta  occ. eigenvalues --   -1.11288  -1.09300  -1.03059  -1.00030  -0.97219
  Beta  occ. eigenvalues --   -0.85212  -0.83902  -0.83586  -0.82725  -0.78808
  Beta  occ. eigenvalues --   -0.77672  -0.74589  -0.73001  -0.71193  -0.70851
  Beta  occ. eigenvalues --   -0.70332  -0.69730  -0.69289  -0.66837  -0.65979
  Beta  occ. eigenvalues --   -0.63543  -0.62240  -0.58482  -0.56463  -0.55391
  Beta  occ. eigenvalues --   -0.53916  -0.53694  -0.53375  -0.51997  -0.51661
  Beta  occ. eigenvalues --   -0.50175  -0.48694  -0.48377  -0.46625  -0.46277
  Beta  occ. eigenvalues --   -0.46007  -0.45632  -0.44834  -0.44504  -0.44171
  Beta  occ. eigenvalues --   -0.43808  -0.43667  -0.42911  -0.42868  -0.42671
  Beta  occ. eigenvalues --   -0.42314  -0.42124  -0.41199  -0.40733  -0.40492
  Beta  occ. eigenvalues --   -0.40236  -0.39468  -0.39308  -0.38941  -0.38621
  Beta  occ. eigenvalues --   -0.38246  -0.38007  -0.37152  -0.36959  -0.36821
  Beta  occ. eigenvalues --   -0.36485  -0.36354  -0.35953  -0.35417  -0.35245
  Beta  occ. eigenvalues --   -0.34437  -0.34121  -0.33566  -0.33480  -0.32789
  Beta  occ. eigenvalues --   -0.32267  -0.31439  -0.31256  -0.29801  -0.29291
  Beta  occ. eigenvalues --   -0.27075  -0.25810  -0.21938  -0.19729  -0.18690
  Beta  occ. eigenvalues --   -0.18136
  Beta virt. eigenvalues --   -0.04293  -0.03672  -0.01972  -0.00507   0.01176
  Beta virt. eigenvalues --    0.01925   0.03092   0.04048   0.04474   0.05155
  Beta virt. eigenvalues --    0.06471   0.07521   0.07552   0.07704   0.08573
  Beta virt. eigenvalues --    0.08900   0.09329   0.09690   0.10220   0.10412
  Beta virt. eigenvalues --    0.11176   0.11227   0.11788   0.12557   0.12700
  Beta virt. eigenvalues --    0.12935   0.13101   0.13655   0.14083   0.14293
  Beta virt. eigenvalues --    0.14978   0.15131   0.15459   0.15650   0.16031
  Beta virt. eigenvalues --    0.16171   0.16387   0.16998   0.17678   0.18046
  Beta virt. eigenvalues --    0.18389   0.18693   0.18861   0.19144   0.19621
  Beta virt. eigenvalues --    0.19912   0.20353   0.20555   0.20882   0.21298
  Beta virt. eigenvalues --    0.21499   0.21841   0.22269   0.22492   0.22794
  Beta virt. eigenvalues --    0.23428   0.23824   0.24130   0.24820   0.25012
  Beta virt. eigenvalues --    0.25412   0.25982   0.26345   0.26978   0.27051
  Beta virt. eigenvalues --    0.27877   0.28423   0.29210   0.29619   0.30774
  Beta virt. eigenvalues --    0.31170   0.31729   0.33001   0.33669   0.33982
  Beta virt. eigenvalues --    0.34807   0.36068   0.36437   0.37871   0.39091
  Beta virt. eigenvalues --    0.39831   0.41681   0.42142   0.42802   0.43860
  Beta virt. eigenvalues --    0.44125   0.44432   0.44601   0.45535   0.45981
  Beta virt. eigenvalues --    0.46998   0.47604   0.48168   0.49006   0.49273
  Beta virt. eigenvalues --    0.50149   0.50643   0.51053   0.51603   0.51964
  Beta virt. eigenvalues --    0.52654   0.53933   0.54205   0.54731   0.55215
  Beta virt. eigenvalues --    0.55271   0.56159   0.56726   0.57278   0.57896
  Beta virt. eigenvalues --    0.58053   0.58752   0.59275   0.59736   0.60530
  Beta virt. eigenvalues --    0.61082   0.61152   0.61906   0.62253   0.62774
  Beta virt. eigenvalues --    0.63094   0.63196   0.63417   0.63987   0.64036
  Beta virt. eigenvalues --    0.64245   0.64653   0.65105   0.65259   0.65348
  Beta virt. eigenvalues --    0.65686   0.66347   0.66703   0.66842   0.67275
  Beta virt. eigenvalues --    0.67338   0.67635   0.68405   0.68516   0.68822
  Beta virt. eigenvalues --    0.69537   0.69935   0.70283   0.70351   0.70587
  Beta virt. eigenvalues --    0.70847   0.71176   0.71683   0.72111   0.72445
  Beta virt. eigenvalues --    0.72680   0.73149   0.73757   0.74163   0.74928
  Beta virt. eigenvalues --    0.75182   0.75520   0.75711   0.76289   0.76787
  Beta virt. eigenvalues --    0.77496   0.77650   0.78175   0.78294   0.79142
  Beta virt. eigenvalues --    0.79910   0.80470   0.80676   0.81431   0.81890
  Beta virt. eigenvalues --    0.82440   0.83163   0.83396   0.84022   0.84717
  Beta virt. eigenvalues --    0.85169   0.85912   0.86422   0.86948   0.87115
  Beta virt. eigenvalues --    0.87551   0.89036   0.89923   0.90221   0.90453
  Beta virt. eigenvalues --    0.90950   0.91441   0.91941   0.93102   0.94258
  Beta virt. eigenvalues --    0.94960   0.95517   0.96395   0.96939   0.97437
  Beta virt. eigenvalues --    0.98018   0.98900   0.99218   1.00073   1.00568
  Beta virt. eigenvalues --    1.00968   1.01594   1.03592   1.04227   1.04907
  Beta virt. eigenvalues --    1.05390   1.05989   1.06610   1.08075   1.09421
  Beta virt. eigenvalues --    1.10141   1.10692   1.11068   1.11556   1.12765
  Beta virt. eigenvalues --    1.13508   1.13742   1.15158   1.16320   1.17226
  Beta virt. eigenvalues --    1.17892   1.18949   1.19826   1.20701   1.21340
  Beta virt. eigenvalues --    1.22191   1.22577   1.23878   1.24611   1.25946
  Beta virt. eigenvalues --    1.26164   1.26839   1.27870   1.29665   1.29929
  Beta virt. eigenvalues --    1.30326   1.30766   1.31600   1.32750   1.33571
  Beta virt. eigenvalues --    1.33837   1.34447   1.34764   1.35371   1.36013
  Beta virt. eigenvalues --    1.36704   1.37685   1.38298   1.38968   1.39536
  Beta virt. eigenvalues --    1.40263   1.40606   1.41675   1.41862   1.42421
  Beta virt. eigenvalues --    1.43277   1.43563   1.44040   1.44708   1.45050
  Beta virt. eigenvalues --    1.45631   1.45990   1.46363   1.46485   1.47979
  Beta virt. eigenvalues --    1.48524   1.49472   1.49872   1.50451   1.50746
  Beta virt. eigenvalues --    1.51989   1.52768   1.53176   1.53934   1.54418
  Beta virt. eigenvalues --    1.54642   1.55181   1.55389   1.56159   1.56811
  Beta virt. eigenvalues --    1.57048   1.58384   1.59209   1.59798   1.61317
  Beta virt. eigenvalues --    1.62246   1.62452   1.62577   1.62956   1.63198
  Beta virt. eigenvalues --    1.63692   1.64346   1.64687   1.65035   1.65848
  Beta virt. eigenvalues --    1.66339   1.66777   1.67329   1.67422   1.68223
  Beta virt. eigenvalues --    1.68885   1.69426   1.69670   1.69916   1.70724
  Beta virt. eigenvalues --    1.71079   1.71224   1.71599   1.71895   1.72250
  Beta virt. eigenvalues --    1.73433   1.73766   1.74113   1.74454   1.75006
  Beta virt. eigenvalues --    1.75061   1.75506   1.75902   1.76012   1.76614
  Beta virt. eigenvalues --    1.76898   1.77283   1.77835   1.78437   1.79060
  Beta virt. eigenvalues --    1.79472   1.79697   1.80028   1.80278   1.80997
  Beta virt. eigenvalues --    1.81649   1.82237   1.83003   1.83218   1.84045
  Beta virt. eigenvalues --    1.85256   1.85773   1.85978   1.86321   1.86974
  Beta virt. eigenvalues --    1.87196   1.88014   1.88413   1.88520   1.89143
  Beta virt. eigenvalues --    1.89938   1.90938   1.91062   1.92006   1.92735
  Beta virt. eigenvalues --    1.93301   1.93627   1.94620   1.95241   1.96515
  Beta virt. eigenvalues --    1.98178   1.98526   1.99205   2.00040   2.00632
  Beta virt. eigenvalues --    2.00974   2.01556   2.02113   2.02789   2.03091
  Beta virt. eigenvalues --    2.03812   2.04651   2.05581   2.06099   2.06401
  Beta virt. eigenvalues --    2.06936   2.07187   2.08304   2.08816   2.09010
  Beta virt. eigenvalues --    2.09733   2.09895   2.11407   2.11992   2.12923
  Beta virt. eigenvalues --    2.13752   2.14667   2.15587   2.15720   2.16830
  Beta virt. eigenvalues --    2.17261   2.18181   2.18331   2.20435   2.20756
  Beta virt. eigenvalues --    2.22272   2.23130   2.23616   2.24272   2.25432
  Beta virt. eigenvalues --    2.25814   2.26341   2.27217   2.27562   2.28285
  Beta virt. eigenvalues --    2.29494   2.29931   2.30903   2.31513   2.33396
[...]
 .00104438,-0.00050703,0.00041153,-0.00016710,0.00007090,-0.00013459,0.
 00000471,-0.00005728,-0.00006097,0.00004973,0.00004376,0.00009958,0.00
 005618,0.00003331,0.00002443,0.00004543,-0.00000579,-0.00000196,0.0001
 6858,0.00045115,0.00016999,0.00011684,0.00005154,0.00003684,0.00007068
 ,0.00077518,-0.00060448,-0.00009471,0.00017762,0.00020124,-0.00004223,
 -0.00000904,0.00004171,-0.00001497,0.00000240,0.00001593,-0.00005025,-
 0.00001942,0.00000795,0.00002229,-0.00001388,-0.00000200,0.00003741,0.
 00045909,-0.00057317,-0.00003471,-0.00039155,0.00045870,-0.00002742,-0
 .00010770,-0.00007035,0.00007192,0.00004939,-0.00010457,-0.00001853,-0
 .00001223,-0.00015227,0.00000492,0.00001881,-0.00001216,-0.00003571,0.
 00004358,0.00000959,0.00014163,0.00012441,0.00008416,-0.00002566,0.000
 02889,-0.00003317,-0.00000180,-0.00000272,-0.00003029,0.00019013,0.000
 15740,-0.00019414,0.00003678,-0.00016181,0.00000330,0.00002052,0.00002
 112,-0.00000712,-0.00012059,0.00003975,-0.00009344,-0.00004554,-0.0000
 4832,0.00003146,-0.00000391,0.00010809,-0.00006788,-0.00004673,-0.0000
 7277,-0.00002329,0.00004831,0.00035569,-0.00006516,-0.00000066,0.00001
 337,-0.00002289,-0.00000546,0.00000683,-0.00004301,-0.00011471,-0.0008
 1433,-0.00069155,-0.06395497,0.40778108,-0.00004982,-0.00014303,0.0000
 6261,-0.00013872,-0.00009321,-0.00022338,-0.00003811,-0.00011391,-0.00
 004152,0.00000035,0.00010991,0.00006454,-0.00018591,-0.00004957,-0.000
 13663,0.00971807,-0.00859612,-0.00626559,-0.00002517,0.00001891,0.0000
 1175,0.00010715,-0.00186994,-0.00084452,0.00078126,0.00001383,-0.00000
 049,0.00018043,0.00007736,0.00009854,-0.00021800,0.00003326,-0.0001374
 4,-0.00004810,0.00007170,-0.00003372,-0.00001755,0.00009199,0.00003986
 ,0.00001591,0.00000078,0.00002769,-0.00009534,0.00023553,-0.00076253,0
 .00003717,-0.00001294,-0.00008154,0.00006564,-0.00003949,-0.00003327,0
 .00020219,-0.00017422,-0.00066702,-0.00079800,-0.00048553,0.00154986,-
 0.00029079,-0.00012380,-0.00020015,-0.00052419,-0.00000524,-0.00101914
 ,-0.00054230,0.00078386,-0.00448518,0.00033881,0.00009185,-0.00018019,
 0.00035237,0.00014874,0.00009673,0.00000928,0.00000178,0.00003401,-0.0
 0013423,-0.00024131,-0.00007154,0.00017036,0.00014876,0.00010042,-0.00
 123840,-0.00018259,0.00018621,-0.00044879,-0.00000277,-0.00090523,-0.0
 0001112,-0.00010532,-0.00010195,-0.00016611,-0.00013333,-0.00024834,-0
 .00001016,-0.00005103,0.00003536,0.00007722,-0.00002139,-0.00001622,0.
 00031970,-0.00062837,0.00033138,0.00010406,0.00007550,0.00005291,0.000
 25547,0.00068198,0.00050995,0.00001474,0.00001188,0.00018148,-0.000038
 83,0.00001416,0.00005724,0.00001364,-0.00003001,-0.00000200,0.00002735
 ,-0.00001294,-0.00002094,0.00003789,-0.00004047,-0.00001558,-0.0018577
 7,-0.00207473,0.00106211,0.00049627,0.00022652,-0.00042677,-0.00003230
 ,0.00002959,-0.00016758,-0.00005037,-0.00003617,0.00002784,-0.00002802
 ,0.00003095,0.00006737,-0.00000616,0.00002227,-0.00000054,0.00011045,-
 0.00001345,0.00005826,0.00025013,0.00003797,-0.00002250,-0.00005725,-0
 .00003962,-0.00006203,-0.00003300,-0.00003662,-0.00000481,-0.00032184,
 0.00031783,0.00016902,0.00065556,0.00086627,-0.00034876,-0.00000215,0.
 00001668,0.00001203,-0.00004377,-0.00010005,-0.00006224,0.00000644,-0.
 00004910,0.00004867,0.00003839,0.00007506,-0.00006259,0.00049905,-0.00
 009575,-0.00010871,-0.00038903,-0.00007429,0.00032713,0.00001893,0.000
 00580,-0.00006821,0.00002346,0.00007485,-0.00006974,-0.00014101,-0.000
 71587,-0.00097510,-0.29142702,-0.09527596,0.37100721,-0.00003755,-0.00
 001159,-0.00000289,0.00025048,-0.00011940,0.00047162,-0.00005372,0.000
 28993,0.00008930,0.00004869,0.00018658,0.00008026,-0.00023741,0.000165
 05,-0.00000980,-0.00544082,-0.00199428,-0.00698524,-0.00004979,0.00003
 841,-0.00000987,0.00065226,-0.00109413,-0.00127393,-0.00070007,0.00016
 123,-0.00138301,-0.00002529,0.00005526,-0.00002057,-0.00015901,-0.0000
 1573,0.00022087,-0.00013910,-0.00017457,-0.00005597,0.00000082,0.00002
 521,0.00004345,0.00014615,-0.00000363,-0.00006330,0.00004628,-0.001201
 49,-0.00046660,0.00001601,0.00000430,0.00001379,0.00004391,-0.00002027
 ,-0.00004638,-0.00210815,0.00068593,-0.00483204,0.00284358,-0.00137610
 ,0.00335385,-0.00105121,-0.00105807,0.00122102,-0.00062897,0.00021493,
 0.00092286,0.00018151,-0.00093807,0.00081818,0.00020986,0.00037801,0.0
 0003428,0.00007206,-0.00003438,-0.00000594,-0.00003466,0.00002803,0.00
 000186,-0.00066686,-0.00029418,-0.00021154,-0.00005679,0.00010526,-0.0
 0010969,-0.00021107,-0.00020085,0.00099095,-0.00003111,0.00014244,0.00
 033806,-0.00000133,-0.00004338,-0.00001333,0.00017339,0.00013639,0.000
 07781,-0.00007122,-0.00003246,-0.00001152,0.00002625,-0.00002929,-0.00
 003301,-0.00013666,0.00010038,0.00000621,-0.00002437,0.00000196,0.0000
 1756,-0.00069838,0.00120613,-0.00048193,0.00010710,-0.00018319,-0.0000
 7565,-0.00003088,0.00001188,0.00003434,0.00002867,-0.00007536,0.000003
 58,0.00011267,0.00001719,-0.00002826,0.00002696,-0.00001725,-0.0000391
 9,0.00116619,0.00144746,-0.00088343,-0.00033718,-0.00059171,0.00063924
 ,0.00001043,0.00001073,0.00008144,0.00037103,0.00021880,-0.00021581,0.
 00009752,-0.00009598,0.00012371,-0.00000310,0.00001381,0.00001475,-0.0
 0008172,0.00005721,-0.00003635,-0.00003586,0.00005275,-0.00000263,-0.0
 0000200,0.00001593,0.00004180,0.00000931,0.00005458,-0.00004359,0.0002
 5563,-0.00018937,-0.00013879,-0.00041000,-0.00073215,0.00030757,0.0000
 1673,0.00002859,-0.00000795,-0.00007881,0.00011251,-0.00002497,-0.0000
 9311,-0.00002502,-0.00000974,-0.00003070,0.00006581,0.00002366,-0.0004
 1596,0.00004058,0.00006697,0.00031862,0.00033922,-0.00028729,0.0000098
 7,0.00001550,0.00003292,-0.00001840,-0.00001704,0.00001546,0.00007074,
 -0.00122890,-0.00111673,-0.18744000,0.14717382,0.12799716,0.20753570,0
 .00000358,-0.00000634,-0.00001350,-0.00014551,0.00004853,0.00018272,0.
 00015674,0.00000010,0.00003113,0.00004255,-0.00021677,-0.00017513,0.00
 029436,0.00001715,0.00005042,-0.00582120,-0.00117199,0.00840699,0.0000
 3563,-0.00001269,0.00000642,0.00231647,-0.00546088,0.00136919,0.000028
 28,-0.00030256,-0.00023385,-0.00011809,-0.00002768,-0.00006606,0.00034
 729,0.00004915,0.00022789,0.00012972,0.00001404,-0.00004612,0.00000033
 ,-0.00004524,-0.00004058,-0.00004524,-0.00010348,0.00004637,-0.0013013
 4,0.00047781,0.00004721,0.00002148,-0.00002114,-0.00000519,-0.00004957
 ,0.00000532,0.00003418,0.00129788,0.00065441,0.00277261,-0.00055510,0.
 00217830,-0.00496386,-0.00045764,0.00138573,0.00093433,0.00052940,-0.0
 0014455,-0.00050507,-0.00018381,0.00089393,-0.00042530,-0.00028744,0.0
 0040899,0.00028518,-0.00019099,-0.00010311,-0.00008271,-0.00000146,0.0
 0001415,-0.00002650,-0.00047902,-0.00094707,-0.00003879,-0.00023061,-0
 .00014866,-0.00002310,0.00135972,0.00064236,-0.00056058,0.00004588,-0.
 00017492,-0.00017556,-0.00001029,0.00006729,0.00007113,-0.00011211,-0.
 00008212,-0.00011247,-0.00000341,-0.00000608,-0.00000655,-0.00005249,0
 .00000487,0.00000073,-0.00002479,-0.00031880,-0.00011567,-0.00015858,-
 0.00007445,-0.00004190,-0.00007903,-0.00114434,0.00114169,0.00014139,-
 0.00029393,-0.00029079,0.00005410,0.00000347,-0.00005588,0.00002896,-0
 .00000541,-0.00000486,0.00009483,0.00003902,-0.00002358,-0.00002904,0.
 00001328,-0.00000076,-0.00021825,-0.00101686,0.00081135,0.00006573,0.0
 0067240,-0.00089314,0.00002396,0.00005107,0.00003585,-0.00003259,-0.00
 005227,0.00007511,-0.00002978,0.00004061,0.00004310,-0.00000681,-0.000
 02082,0.00001811,0.00006241,-0.00005562,0.00001010,-0.00016901,-0.0001
 4611,-0.00012980,0.00002620,-0.00002629,0.00000749,-0.00000635,0.00000
 228,0.00003449,-0.00029841,-0.00019830,0.00028785,0.00018273,0.0003920
 8,-0.00012249,-0.00002906,-0.00002352,0.00001003,0.00008681,-0.0000634
 1,0.00003704,0.00005514,0.00006122,-0.00003770,0.00001247,-0.00013636,
 0.00008394,0.00015925,0.00012860,-0.00000364,-0.00009262,-0.00045298,0
 .00016296,-0.00000546,-0.00001685,0.00001194,0.00001280,0.00001163,0.0
 0001247,0.00018403,0.00123868,0.00100596,0.18282781,-0.20619404,-0.113
 31307,-0.15684467,0.19664360,0.00005027,0.00008162,-0.00002922,-0.0001
 1796,0.00011803,0.00011745,0.00015448,-0.00004268,-0.00000021,-0.00000
 415,-0.00024908,-0.00022076,0.00026504,0.00006977,0.00013863,-0.003657
 04,0.00067586,-0.00441545,0.00003723,-0.00002355,-0.00000072,-0.000372
 93,0.00362196,0.00364300,-0.00012632,-0.00025583,0.00023761,-0.0001877
 1,-0.00009044,-0.00007959,0.00033805,0.00003757,0.00014158,0.00008665,
 -0.00003847,0.00004431,0.00002406,-0.00009201,-0.00005095,-0.00004866,
 -0.00002166,-0.00001573,-0.00099208,0.00002739,0.00046440,-0.00000189,
 0.00000122,0.00005244,-0.00006358,0.00002702,0.00003726,-0.00269323,0.
 00154716,0.00109281,0.00045357,0.00111420,-0.00361546,0.00123153,0.001
 05496,0.00023301,0.00053310,-0.00022302,-0.00066434,0.00021859,0.00018
 821,-0.00130236,-0.00043245,-0.00012729,0.00017544,-0.00048267,-0.0002
 1417,-0.00005911,0.00000338,-0.00000415,-0.00002675,0.00026230,0.00006
 329,-0.00007482,-0.00016724,-0.00015735,-0.00002191,0.00123787,0.00035
 568,-0.00057725,0.00031738,-0.00006798,0.00056281,0.00000722,0.0000909
 3,0.00008514,-0.00005891,-0.00003431,-0.00000367,0.00001930,0.00002592
 ,-0.00000934,-0.00006523,0.00002012,0.00001529,-0.00002968,-0.00000914
 ,-0.00028973,-0.00010165,-0.00006932,-0.00004656,-0.00048862,-0.001037
 14,-0.00019770,-0.00002993,0.00000073,-0.00018542,0.00004289,0.0000039
 2,-0.00005460,0.00000216,0.00003935,-0.00000864,-0.00003258,0.00000598
 ,0.00002194,-0.00003791,0.00002923,0.00001977,-0.00036822,-0.00021414,
 -0.00015973,0.00010349,0.00025726,-0.00028974,0.00004124,0.00002067,0.
 00009526,-0.00007464,-0.00005762,0.00003390,-0.00004774,0.00005137,-0.
 00000537,-0.00000075,-0.00002383,-0.00000002,0.00001401,-0.00003089,-0
 .00000097,-0.00018585,-0.00009761,-0.00004252,0.00004837,-0.00000149,0
 .00001288,0.00002102,0.00001010,0.00002113,0.00008291,-0.00006272,0.00
 003830,-0.00000602,0.00022143,0.00000116,-0.00001622,-0.00002643,0.000
 00010,0.00009556,-0.00005161,0.00005498,0.00004627,0.00005899,-0.00004
 066,-0.00000219,-0.00011147,0.00005265,0.00003394,0.00004799,0.0000038
 0,-0.00003947,-0.00028887,0.00006572,-0.00001023,-0.00002889,0.0000163
 9,0.00000350,-0.00002118,0.00003023,0.00029256,0.00117487,0.00133250,0
 .10861492,-0.07275840,-0.09879450,-0.12721074,0.08627648,0.11785289,0.
 00000069,-0.00006208,-0.00000283,-0.00003284,-0.00006227,0.00011756,-0
 .00000958,0.00005239,0.00000910,-0.00001237,0.00005683,0.00002395,-0.0
 0000248,0.00002773,0.00005958,-0.00008510,0.00080693,0.00008253,-0.000
 00492,0.00000686,-0.00000244,-0.00013323,0.00067258,-0.00038352,0.0000
 3257,0.00011504,-0.00038849,-0.00005188,-0.00001825,-0.00001266,-0.000
 23260,-0.00003109,-0.00011747,0.00000400,-0.00002396,0.00000677,-0.000
 00243,-0.00000042,0.00000164,0.00002062,0.00000350,-0.00002964,0.00042
 831,-0.00031100,-0.00011845,0.00000637,-0.00000497,0.00000320,0.000006
 20,-0.00000350,-0.00000629,0.00100818,0.00066461,0.00144099,0.00011463
 ,-0.00014319,-0.00001475,0.00007196,-0.00012179,-0.00009257,-0.0002325
 5,0.00009129,0.00012127,-0.00034549,-0.00020051,-0.00116014,-0.0000184
 7,-0.00006376,0.00001874,-0.00005493,-0.00004517,-0.00000586,-0.000007
 70,0.00000488,-0.00000317,0.00008605,0.00016748,0.00002532,-0.00002302
 ,0.00000190,-0.00000822,0.00001873,0.00003539,0.00007445,-0.00011845,0
 .00003891,-0.00020957,0.00000205,-0.00000426,0.00000761,-0.00000251,-0
 .00001683,-0.00003109,-0.00002507,-0.00003650,-0.00000453,0.00000187,-
 0.00000573,-0.00000663,0.00000757,-0.00013407,0.00000172,-0.00000799,-
 0.00000747,0.00000272,0.00002356,0.00012607,0.00021079,-0.00001087,0.0
 0001664,-0.00001273,0.00000011,0.00000221,0.00000327,0.00000268,-0.000
 01160,-0.00000221,-0.00000107,-0.00000639,0.00000492,0.00000423,-0.000
 00344,-0.00000437,-0.00020672,-0.00018873,0.00022448,0.00000670,-0.000
 01177,0.00005335,0.00001260,0.00001551,-0.00000669,-0.00000287,-0.0000
 0052,-0.00003119,0.00000798,-0.00001614,0.00004982,-0.00000065,0.00000
 285,0.00000069,0.00000825,0.00001959,-0.00000865,-0.00000605,-0.000000
 38,-0.00001322,-0.00001239,-0.00000472,0.00000947,0.00000545,0.0000132
 5,-0.00001253,-0.00000447,0.00000553,-0.00000482,0.00004428,0.00004914
 ,-0.00000252,0.00000084,0.00000458,-0.00000155,0.00000135,0.00000682,-
 0.00000569,-0.00000557,0.00000404,-0.00000337,-0.00000125,-0.00000092,
 0.00000749,0.00002018,-0.00000219,-0.00001059,-0.00003189,-0.00001206,
 0.00001512,0.00000158,-0.00000019,0.00000314,0.00000389,0.00000929,0.0
 0000087,-0.00002539,-0.00011546,-0.00019567,-0.11310448,-0.09322258,0.
 15648441,-0.01330713,-0.02255812,0.02347161,0.12617091,-0.00005995,-0.
 00006697,-0.00001738,0.00009457,-0.00002502,0.00006343,-0.00000262,0.0
 0004913,0.00004755,0.00000774,0.00000803,-0.00002690,0.00000553,0.0000
 0336,0.00000029,0.00070445,-0.00147580,-0.00060057,0.00000540,-0.00000
 150,0.00000185,-0.00001285,-0.00084279,0.00011622,-0.00024396,-0.00008
 257,-0.00045574,-0.00000968,-0.00000313,-0.00000646,0.00004996,0.00001
 500,0.00009047,0.00001335,-0.00000115,0.00001544,0.00000419,-0.0000092
 5,-0.00000889,-0.00000414,-0.00000128,-0.00000144,0.00007938,-0.000103
 95,-0.00047556,-0.00000317,-0.00000372,0.00000398,-0.00000486,0.000002
 63,0.00000326,0.00006877,-0.00041566,0.00044619,-0.00004965,-0.0000316
 8,0.00004996,0.00004321,-0.00016841,-0.00009785,0.00015667,0.00003009,
 0.00032568,-0.00027856,0.00028336,-0.00058834,-0.00004075,-0.00002097,
 0.00000139,-0.00002616,-0.00000809,-0.00000365,0.00000296,0.00000046,-
 0.00000265,0.00010344,0.00013426,0.00004658,-0.00002317,-0.00001342,0.
 00000289,0.00009778,0.00003363,-0.00002271,0.00004424,-0.00000625,0.00
 002690,0.00000145,0.00000688,0.00000788,0.00001820,0.00000208,-0.00000
 006,-0.00002287,-0.00000933,-0.00000615,-0.00000650,0.00000250,0.00000
 142,-0.00010512,-0.00005984,-0.00004351,-0.00000713,-0.00000557,-0.000
 00675,0.00002535,-0.00005760,-0.00010342,0.00000867,0.00000431,-0.0000
 1036,0.00000405,0.00000105,-0.00000501,-0.00000324,0.00000153,-0.00000
 585,-0.00000509,-0.00000272,0.00000263,-0.00000215,0.00000409,0.000001
 61,-0.00005873,-0.00006859,-0.00007778,0.00004052,-0.00002224,-0.00001
 768,0.00000786,0.00003449,0.00001687,0.00002605,0.00000834,-0.00001931
 ,0.00001298,0.00000243,0.00005230,0.00000013,-0.00000430,0.00000044,0.
 00000320,-0.00001063,-0.00000318,-0.00001571,-0.00000546,0.00000638,0.
 00000770,-0.00000767,0.00000948,0.00000324,0.00000025,0.00000204,0.000
 00431,-0.00001471,-0.00000447,-0.00004836,0.00003204,0.00003152,-0.000
 00108,-0.00000363,0.00000053,0.00000435,0.00000176,0.00000422,-0.00000
 240,-0.00000062,-0.00000138,-0.00000282,-0.00001119,0.00000649,0.00000
 256,0.00001732,0.00000158,0.00001927,-0.00000898,-0.00001181,-0.000001
 15,-0.00000120,0.00000379,-0.00000272,-0.00000314,0.00000757,-0.000009
 22,0.00003286,0.00006390,-0.13008861,-0.19560820,0.22066561,0.01504072
 ,0.01305559,-0.02078651,0.11443019,0.18541980,-0.00001120,-0.00003356,
 -0.00003802,0.00010828,-0.00011139,0.00036522,-0.00000417,0.00019027,0
 .00007697,-0.00001582,0.00004254,-0.00001985,0.00004751,-0.00001302,0.
 00002401,-0.00042693,-0.00021226,0.00044682,0.00000633,0.00000004,-0.0
 0000498,0.00005979,-0.00070169,0.00017293,-0.00041019,0.00010834,-0.00
 085979,-0.00003150,-0.00002009,-0.00002011,-0.00003496,-0.00003166,0.0
 0006819,0.00001495,0.00000770,0.00000463,-0.00000376,-0.00001743,-0.00
 001538,-0.00001020,0.00000329,-0.00000472,0.00030591,-0.00049928,-0.00
 049352,-0.00000726,0.00000293,0.00001481,-0.00001620,0.00001157,0.0000
 1071,0.00081709,0.00055743,-0.00070844,0.00010997,0.00007695,-0.000247
 14,0.00002238,-0.00003535,-0.00014221,-0.00000691,0.00007191,0.0002197
 9,-0.00051291,-0.00002404,-0.00022354,-0.00007050,-0.00002525,0.000060
 38,-0.00002646,-0.00001888,-0.00001555,-0.00000346,-0.00000184,-0.0000
 0751,-0.00000700,0.00005364,0.00009644,-0.00002957,-0.00004482,-0.0000
 2145,0.00025004,0.00007617,-0.00007811,-0.00008432,0.00001267,-0.00021
 931,-0.00000126,0.00002742,0.00002637,0.00001502,0.00000724,-0.0000208
 6,-0.00004013,-0.00002209,-0.00002345,-0.00002011,0.00000739,0.0000058
 0,-0.00013008,-0.00021548,-0.00005313,-0.00001870,-0.00001927,-0.00001
 407,0.00006244,-0.00011937,-0.00009281,-0.00000601,0.00000376,-0.00004
 451,0.00001041,-0.00000323,-0.00001178,-0.00000798,0.00000854,0.000006
 69,-0.00001251,0.00000462,0.00000581,-0.00000793,0.00000848,0.00000632
 ,0.00006369,0.00000933,0.00019849,-0.00008523,0.00001338,-0.00002121,0
 .00003700,0.00003289,0.00004020,-0.00000516,-0.00000411,0.00000212,0.0
 0003674,-0.00001662,0.00008941,0.00000209,-0.00000637,0.00000091,0.000
 00039,-0.00000295,-0.00001784,-0.00006012,-0.00002659,-0.00000657,-0.0
 0000060,-0.00000896,0.00003391,0.00000184,0.00000313,0.00000651,0.0000
 3108,-0.00002759,0.00000127,-0.00003850,-0.00002771,0.00005358,-0.0000
 0049,-0.00000773,0.00000052,0.00000626,0.00001360,0.00000004,0.0000045
 6,0.00000942,-0.00000459,-0.00000578,-0.00002269,0.00001967,-0.0000318
 8,-0.00000476,0.00001637,0.00001114,-0.00000839,0.00000178,-0.00001214
 ,-0.00000247,0.00000409,-0.00000391,-0.00001529,0.00000470,-0.00001680
 ,0.00010702,0.00016997,0.17176305,0.18159574,-0.25855198,0.00805313,0.
 01800177,-0.01541098,-0.17962245,-0.19871693,0.27513799\\-0.00000328,0
 .00000053,0.00000029,0.00000138,-0.00000207,0.00000140,0.00000061,-0.0
 0000004,-0.00000149,-0.00000147,0.00000107,0.00000143,0.00000003,0.000
 00041,-0.00000063,-0.00000337,-0.00001642,-0.00000505,-0.00000026,-0.0
 0000023,-0.00000021,0.00000011,0.00001110,0.00001092,0.00000002,0.0000
 0514,0.00000040,-0.00000066,0.00000033,-0.00000087,0.00000427,-0.00000
 119,0.00000187,0.00000205,0.00000205,0.00000124,-0.00000094,-0.0000003
 6,0.00000004,0.00000122,-0.00000024,-0.00000102,0.00000262,-0.00000216
 ,0.00000058,-0.00000228,-0.00000140,0.00000129,-0.00000014,-0.00000051
 ,0.00000004,0.00000083,0.00000702,-0.00000073,0.00000735,0.00001424,0.
 00001088,-0.00001294,0.00001307,0.00002038,-0.00000926,0.00000959,0.00
 001251,0.00000578,-0.00001300,-0.00000943,0.00000235,-0.00001268,-0.00
 000672,0.00000220,0.00000199,-0.00000393,-0.00000032,-0.00000029,0.000
 00127,0.00000179,-0.00001175,-0.00000869,-0.00000502,0.00000585,-0.000
 00101,-0.00000963,-0.00000558,0.00000008,-0.00000059,0.00000326,0.0000
 0076,-0.00000084,0.00000167,-0.00000087,-0.00000100,-0.00000063,0.0000
 0062,0.00000128,0.00000026,-0.00000172,0.00000018,-0.00000003,0.000000
 26,0.00000150,-0.00000432,-0.00000430,-0.00000073,-0.00000165,-0.00000
 065,0.00000813,-0.00000656,-0.00000318,0.00000345,0.00000419,0.0000044
 0,-0.00000095,0.00000003,0.00000090,-0.00000089,-0.00000294,-0.0000015
 6,0.00000109,-0.00000101,-0.00000119,0.00000071,0.00000023,0.00000088,
 0.00000619,-0.00000960,0.00000526,-0.00001138,0.00000699,-0.00001177,-
 0.00000395,0.00000008,-0.00000580,-0.00000102,0.00000374,-0.00000134,-
 0.00000032,-0.00000058,-0.00000054,0.00000092,-0.00000064,0.00000038,0
 .00000036,-0.00000080,0.00000197,0.00000138,0.00000418,0.00000035,-0.0
 0000137,0.00000176,0.00000119,-0.00000136,-0.00000170,-0.00000120,0.00
 000628,0.00000102,-0.00000213,0.00000112,0.00000913,-0.00000001,0.0000
 0017,-0.00000105,-0.00000066,0.00000025,0.00000033,-0.00000220,-0.0000
 0039,-0.00000405,-0.00000081,-0.00000122,-0.00000098,-0.00000043,0.000
 00294,-0.00000310,0.,-0.00000412,-0.00000492,0.00000438,-0.00000116,0.
 00000268,0.00000053,0.00000141,0.00000049,-0.00000187,-0.00000266,0.00
 000606,0.00000324,0.00000140,-0.00000603,0.00000008,0.00001502,-0.0000
 0248,-0.00000891,-0.00000288,0.00000252,0.00000110\\\@


 KNOWLEDGE IS CHIMERA - FOR BEYOND IT LIES OTHER KNOWLEDGE,
 AND THE INCOMPLETENESS OF WHAT IS KNOWN RENDERS THE KNOWING FALSE.
     -- THE THOMAS COVENANT CHRONICLES
 Job cpu time:       2 days  6 hours 30 minutes 19.6 seconds.
 Elapsed time:       0 days  2 hours 43 minutes 46.8 seconds.
 File lengths (MBytes):  RWF=   4621 Int=      0 D2E=      0 Chk=     44 Scr=      1
 Normal termination of Gaussian 16 at Mon Jul  6 11:07:26 2020.
