65
	Energy: -1022871.1899955
H         -3.38494       -3.31180        1.82737
C         -2.95512       -2.79277        0.95830
H         -3.38208       -3.24852        0.05218
H         -1.86643       -2.95916        0.96163
H          1.90861       -0.67840        2.70800
O         -0.53456       -0.35358        2.07755
H          3.01942       -2.52358        0.85085
O         -0.35394       -1.52334        2.63574
C         -3.25043       -1.31281        1.06133
H          3.09522        0.44848        3.41532
H         -4.34039       -1.12453        1.05618
C          2.80965       -0.08705        2.49421
H          1.90555       -2.89679       -0.47328
H          3.63051       -0.77775        2.24948
H         -2.86486       -0.91811        2.00937
C          2.92191       -2.54757       -0.24458
H          3.64858       -3.27877       -0.63668
H         -2.66408        1.08616        1.35598
Ru        -0.31837       -0.68828       -0.00504
H          0.53186        1.44950        2.04182
N         -2.60517       -0.51691       -0.00635
C         -2.83355        0.92076        0.27621
C          2.56533        0.92876        1.37589
H          1.84035        2.41943        2.74501
H          4.91382       -0.82138        0.45058
C          1.49019        1.92964        1.82129
C          3.19596       -1.17605       -0.87243
P          1.87279       -0.00911       -0.13540
H         -3.88007        1.20620        0.07627
C          4.65112       -0.78951       -0.61501
H         -2.77125       -1.86864       -1.59665
H         -5.17070       -1.52766       -0.94783
H          5.29862       -1.51901       -1.13009
C         -3.12403       -0.85838       -1.35592
H          4.01544        2.38917        1.98578
C         -0.23183       -1.57996       -1.59320
C          3.83591        1.74231        1.11081
H          1.97571       -1.47843       -2.68860
C          3.00900       -1.26566       -2.38964
H          4.73044        1.12740        0.97445
H          3.63245       -2.09289       -2.76752
C         -1.89906        1.81367       -0.48819
N         -0.64961        1.34073       -0.61557
C         -4.63079       -0.78598       -1.55459
H          1.33192        2.72272        1.07485
H         -2.61559       -0.18268       -2.05967
H          4.89859        0.20539       -1.01207
H         -5.05049        0.20694       -1.33435
C          1.64357        1.37017       -1.39287
H         -4.85289       -1.00424       -2.60984
H          3.73636        2.40888        0.24034
C          0.31283        2.05126       -1.22985
C         -2.24178        3.06770       -0.98206
H          3.34686       -0.34867       -2.89655
H         -3.26161        3.43938       -0.87459
H          1.62986        0.85885       -2.36903
H          2.46623        2.10001       -1.42016
C          0.03643        3.32619       -1.72152
C         -1.25326        3.83625       -1.59409
H          0.82291        3.90564       -2.20703
H         -1.49003        4.82932       -1.98022
O         -0.24541       -2.20583       -2.58353
O         -2.15763        1.34600        3.37545
H         -1.45833        0.73127        3.05377
H         -2.60547        0.82846        4.05496
