 Entering Gaussian System, Link 0=g16
 Initial command:
 /cluster/chemistry/gaussian/g16/l1.exe "/scratch/js1212.738051/scratch/Gau-23398.inp" -scrdir="/scratch/js1212.738051/scratch/"
 Entering Link 1 = /cluster/chemistry/gaussian/g16/l1.exe PID=     23400.
  
 Copyright (c) 1988,1990,1992,1993,1995,1998,2003,2009,2016,
            Gaussian, Inc.  All Rights Reserved.
  
 This is part of the Gaussian(R) 16 program.  It is based on
 the Gaussian(R) 09 system (copyright 2009, Gaussian, Inc.),
 the Gaussian(R) 03 system (copyright 2003, Gaussian, Inc.),
 the Gaussian(R) 98 system (copyright 1998, Gaussian, Inc.),
 the Gaussian(R) 94 system (copyright 1995, Gaussian, Inc.),
 the Gaussian 92(TM) system (copyright 1992, Gaussian, Inc.),
 the Gaussian 90(TM) system (copyright 1990, Gaussian, Inc.),
 the Gaussian 88(TM) system (copyright 1988, Gaussian, Inc.),
 the Gaussian 86(TM) system (copyright 1986, Carnegie Mellon
 University), and the Gaussian 82(TM) system (copyright 1983,
 Carnegie Mellon University). Gaussian is a federally registered
 trademark of Gaussian, Inc.
  
 This software contains proprietary and confidential information,
 including trade secrets, belonging to Gaussian, Inc.
  
 This software is provided under written license and may be
 used, copied, transmitted, or stored only in accord with that
 written license.
  
 The following legend is applicable only to US Government
 contracts under FAR:
  
                    RESTRICTED RIGHTS LEGEND
  
 Use, reproduction and disclosure by the US Government is
 subject to restrictions as set forth in subparagraphs (a)
 and (c) of the Commercial Computer Software - Restricted
 Rights clause in FAR 52.227-19.
  
 Gaussian, Inc.
 340 Quinnipiac St., Bldg. 40, Wallingford CT 06492
  
  
 ---------------------------------------------------------------
 Warning -- This program may not be used in any manner that
 competes with the business of Gaussian, Inc. or will provide
 assistance to any competitor of Gaussian, Inc.  The licensee
 of this program is prohibited from giving any competitor of
 Gaussian, Inc. access to this program.  By using this program,
 the user acknowledges that Gaussian, Inc. is engaged in the
 business of creating and licensing software in the field of
 computational chemistry and represents and warrants to the
 licensee that it is not a competitor of Gaussian, Inc. and that
 it will not use this program in any manner prohibited above.
 ---------------------------------------------------------------
  

 Cite this work as:
 Gaussian 16, Revision A.03,
 M. J. Frisch, G. W. Trucks, H. B. Schlegel, G. E. Scuseria, 
 M. A. Robb, J. R. Cheeseman, G. Scalmani, V. Barone, 
 G. A. Petersson, H. Nakatsuji, X. Li, M. Caricato, A. V. Marenich, 
 J. Bloino, B. G. Janesko, R. Gomperts, B. Mennucci, H. P. Hratchian, 
 J. V. Ortiz, A. F. Izmaylov, J. L. Sonnenberg, D. Williams-Young, 
 F. Ding, F. Lipparini, F. Egidi, J. Goings, B. Peng, A. Petrone, 
 T. Henderson, D. Ranasinghe, V. G. Zakrzewski, J. Gao, N. Rega, 
 G. Zheng, W. Liang, M. Hada, M. Ehara, K. Toyota, R. Fukuda, 
 J. Hasegawa, M. Ishida, T. Nakajima, Y. Honda, O. Kitao, H. Nakai, 
 T. Vreven, K. Throssell, J. A. Montgomery, Jr., J. E. Peralta, 
 F. Ogliaro, M. J. Bearpark, J. J. Heyd, E. N. Brothers, K. N. Kudin, 
 V. N. Staroverov, T. A. Keith, R. Kobayashi, J. Normand, 
 K. Raghavachari, A. P. Rendell, J. C. Burant, S. S. Iyengar, 
 J. Tomasi, M. Cossi, J. M. Millam, M. Klene, C. Adamo, R. Cammi, 
 J. W. Ochterski, R. L. Martin, K. Morokuma, O. Farkas, 
 J. B. Foresman, and D. J. Fox, Gaussian, Inc., Wallingford CT, 2016.
 
 ******************************************
 Gaussian 16:  ES64L-G16RevA.03 25-Dec-2016
                 5-May-2020 
 ******************************************
 %rwf=/scratch/js1212.738051/0-Full-Planar-H2O-GP-SMD.rwf
 %nosave
 %nprocshared=20
 Will use up to   20 processors via shared memory.
 %mem=3000MB
 %oldchk=/data/js1212/200504_g16/0-Full-Planar-H2O-GPOF.chk
 %chk=/scratch/js1212.738051/0-Full-Planar-H2O-GP-SMD.chk
 Copying data from "/data/js1212/200504_g16/0-Full-Planar-H2O-GPOF.chk" to current chk file "/scratch/js1212.738051/0-Full-Planar-H2O-GP-SMD.chk"
 IOpt=  2 FromEx=T IUOpen= 4 IOptOp= 5 NList=   0 IFRang= 0 IUIn= 4 IUOut= 2.
 ----------------------------------------------------------------------
 # genecp pbe1pbe EmpiricalDispersion=GD3BJ scrf=(SMD,solvent=water) ge
 om=allcheck
 ----------------------------------------------------------------------
 1/29=7,38=1,172=1/1;
 2/12=2,40=1/2;
 3/5=7,11=2,14=-4,16=1,17=8,25=1,30=1,70=32201,72=1,74=-13,124=41/1,2,3;
 4//1;
 5/5=2,38=5,53=1/2;
 6/7=2,8=2,9=2,10=2,28=1/1;
 99/5=1,9=1/99;
 Structure from the checkpoint file:  "/scratch/js1212.738051/0-Full-Planar-H2O-GP-SMD.chk"
 -------------------
 Title Card Required
 -------------------
 Charge =  0 Multiplicity = 1
 Redundant internal coordinates found in file.  (old form).
 N,0,0.7199715759,1.3806515814,0.205519207
 C,0,1.9349196878,1.9062041894,-0.0503911834
 C,0,-0.2292556949,2.1179756158,0.8290113548
 C,0,2.2717991019,3.193312119,0.3470909163
 C,0,1.307851909,3.9656569108,0.9934381396
 C,0,0.0452765914,3.4262874113,1.2248924949
 C,0,2.8220746302,1.0270796734,-0.8805132434
 H,0,3.2678359884,3.5868454176,0.1404554528
 H,0,1.539260697,4.9828625005,1.3139690785
 H,0,-0.7290050076,4.0092022041,1.724975762
 C,0,-1.5388203509,1.4381367554,1.0821189316
 N,0,2.6451005019,-0.4066611636,-0.5807522466
 H,0,3.8772871662,1.3415470364,-0.7952728035
 H,0,2.5290377753,1.1684692429,-1.9337887475
 H,0,-1.5062470219,1.006882173,2.0970850233
 P,0,-1.7306056901,-0.0575599068,-0.0416135257
 H,0,-2.3736839726,2.1552966755,1.0517355328
 Ru,0,0.4042777818,-0.6009506754,-0.3627628419
 C,0,3.2784977704,-0.7573198203,0.7147617236
 C,0,-2.9644545025,-1.1309828526,0.9310094116
 C,0,3.2102712323,-1.1692644931,-1.719763018
 C,0,-2.5811830571,0.6621980207,-1.5957080103
 C,0,-2.1547147064,-1.8734106474,1.9981874722
 C,0,-3.5887060088,-2.1698787525,-0.0030257878
 C,0,-4.0607342772,-0.322460235,1.6286286688
 C,0,-1.7193156755,1.8502592653,-2.0361506323
 C,0,-4.0176733346,1.1410066425,-1.4087294764
 C,0,-2.5020383839,-0.3960690013,-2.6998567105
 H,0,2.7913860818,-0.144074652,1.4841582923
 C,0,4.7916106555,-0.6104557692,0.8006085144
 H,0,2.9759580804,-1.7875554335,0.9415660993
 H,0,2.5718692463,-0.929894251,-2.583647846
 C,0,3.2595710119,-2.6684793551,-1.5246777713
 H,0,4.2273164861,-0.7897301743,-1.9454892824
 C,0,0.0195329478,-2.3463413681,-0.7260862271
 H,0,2.2685716828,-3.0707466323,-1.2786246649
 H,0,3.9670469248,-2.9700616473,-0.7386201874
 H,0,3.5937784138,-3.1351250973,-2.463078309
 H,0,5.1139973515,-0.9142982141,1.807627227
 H,0,5.1324329687,0.4256820426,0.6537943431
 H,0,5.3230337111,-1.2489790137,0.0793880906
 H,0,-2.8468016154,-2.4805705246,2.6065852412
 H,0,-1.6114085284,-1.1959464906,2.6725063049
 H,0,-1.4130494732,-2.5422698732,1.5420317757
 H,0,-4.1613094829,-2.8929660283,0.6019331961
 H,0,-2.820767258,-2.7336107474,-0.5526594868
 H,0,-4.2860618422,-1.724220236,-0.7264838168
 H,0,-4.7336239281,-1.0184103366,2.1576827037
 H,0,-4.6752653893,0.2648179718,0.9351538822
 H,0,-3.6475871525,0.3591729862,2.386965298
 H,0,-4.7115962639,0.3168255901,-1.193993454
 H,0,-4.3641004421,1.6244245633,-2.3385763425
 H,0,-4.1068988647,1.8867658028,-0.6030956654
 H,0,-3.1171148792,-1.2799069358,-2.4857418769
 H,0,-1.4602127907,-0.7293909208,-2.8247711044
 H,0,-2.8560397637,0.0384899303,-3.6505513996
 H,0,-2.0853636832,2.2195972946,-3.0089158727
 H,0,-0.6677012381,1.544810913,-2.1525741664
 H,0,-1.7629024066,2.6915863488,-1.327086764
 O,0,-0.2981728819,-3.4588000148,-0.9209880443
 O,0,0.68095994,-0.4414503678,2.8685815994
 H,0,0.9166564686,0.4868097212,2.7508401928
 H,0,0.5313511876,-0.7313649675,1.9246985789
 Recover connectivity data from disk.
                           ----------------------------
                           !    Current Parameters    !
                           ! (Angstroms and Degrees)  !
 --------------------------                            --------------------------
 ! Name  Definition              Value                                          !
 --------------------------------------------------------------------------------
 ! R1    R(1,2)                  1.3483                                         !
 ! R2    R(1,3)                  1.354                                          !
 ! R3    R(1,18)                 2.0855                                         !
 ! R4    R(2,4)                  1.3886                                         !
 ! R5    R(2,7)                  1.4997                                         !
 ! R6    R(3,6)                  1.3942                                         !
 ! R7    R(3,11)                 1.4971                                         !
 ! R8    R(4,5)                  1.3941                                         !
 ! R9    R(4,8)                  1.0907                                         !
 ! R10   R(5,6)                  1.3923                                         !
 ! R11   R(5,9)                  1.0913                                         !
 ! R12   R(6,10)                 1.0906                                         !
 ! R13   R(7,12)                 1.4754                                         !
 ! R14   R(7,13)                 1.1044                                         !
 ! R15   R(7,14)                 1.1024                                         !
 ! R16   R(11,15)                1.1033                                         !
 ! R17   R(11,16)                1.8806                                         !
 ! R18   R(11,17)                1.101                                          !
 ! R19   R(12,19)                1.4841                                         !
 ! R20   R(12,21)                1.4827                                         !
 ! R21   R(16,18)                2.2262                                         !
 ! R22   R(16,20)                1.9028                                         !
 ! R23   R(16,22)                1.9123                                         !
 ! R24   R(18,35)                1.8238                                         !
 ! R25   R(18,61)                3.2471                                         !
 ! R26   R(19,29)                1.0979                                         !
 ! R27   R(19,30)                1.5226                                         !
 ! R28   R(19,31)                1.0974                                         !
 ! R29   R(20,23)                1.5316                                         !
 ! R30   R(20,24)                1.5302                                         !
 ! R31   R(20,25)                1.5304                                         !
 ! R32   R(21,32)                1.1005                                         !
 ! R33   R(21,33)                1.5127                                         !
 ! R34   R(21,34)                1.1088                                         !
 ! R35   R(22,26)                1.5324                                         !
 ! R36   R(22,27)                1.5257                                         !
 ! R37   R(22,28)                1.5314                                         !
 ! R38   R(23,42)                1.1035                                         !
 ! R39   R(23,43)                1.0995                                         !
 ! R40   R(23,44)                1.098                                          !
 ! R41   R(24,45)                1.103                                          !
 ! R42   R(24,46)                1.0998                                         !
 ! R43   R(24,47)                1.0992                                         !
 ! R44   R(25,48)                1.1032                                         !
 ! R45   R(25,49)                1.097                                          !
 ! R46   R(25,50)                1.1002                                         !
 ! R47   R(26,57)                1.103                                          !
 ! R48   R(26,58)                1.1012                                         !
 ! R49   R(26,59)                1.1011                                         !
 ! R50   R(27,51)                1.0986                                         !
 ! R51   R(27,52)                1.1038                                         !
 ! R52   R(27,53)                1.1014                                         !
 ! R53   R(28,54)                1.0979                                         !
 ! R54   R(28,55)                1.101                                          !
 ! R55   R(28,56)                1.1036                                         !
 ! R56   R(30,39)                1.1002                                         !
 ! R57   R(30,40)                1.1006                                         !
 ! R58   R(30,41)                1.1001                                         !
 ! R59   R(33,36)                1.0975                                         !
 ! R60   R(33,37)                1.0997                                         !
 ! R61   R(33,38)                1.1                                            !
 ! R62   R(35,60)                1.1732                                         !
 ! R63   R(61,62)                0.9649                                         !
 ! R64   R(61,63)                0.9987                                         !
 ! A1    A(2,1,3)              120.4548                                         !
 ! A2    A(2,1,18)             117.0692                                         !
 ! A3    A(3,1,18)             122.4634                                         !
 ! A4    A(1,2,4)              121.7091                                         !
 ! A5    A(1,2,7)              114.182                                          !
 ! A6    A(4,2,7)              123.939                                          !
 ! A7    A(1,3,6)              120.2453                                         !
 ! A8    A(1,3,11)             116.3467                                         !
 ! A9    A(6,3,11)             123.3933                                         !
 ! A10   A(2,4,5)              118.5873                                         !
 ! A11   A(2,4,8)              120.1164                                         !
 ! A12   A(5,4,8)              121.2906                                         !
 ! A13   A(4,5,6)              119.3058                                         !
 ! A14   A(4,5,9)              120.3939                                         !
 ! A15   A(6,5,9)              120.3003                                         !
 ! A16   A(3,6,5)              119.6619                                         !
 ! A17   A(3,6,10)             119.4704                                         !
 ! A18   A(5,6,10)             120.862                                          !
 ! A19   A(2,7,12)             112.7207                                         !
 ! A20   A(2,7,13)             110.8295                                         !
 ! A21   A(2,7,14)             107.2439                                         !
 ! A22   A(12,7,13)            112.0638                                         !
 ! A23   A(12,7,14)            106.6709                                         !
 ! A24   A(13,7,14)            106.9307                                         !
 ! A25   A(3,11,15)            107.8917                                         !
 ! A26   A(3,11,16)            110.4477                                         !
 ! A27   A(3,11,17)            111.2746                                         !
 ! A28   A(15,11,16)           103.9952                                         !
 ! A29   A(15,11,17)           107.6009                                         !
 ! A30   A(16,11,17)           115.1018                                         !
 ! A31   A(7,12,19)            110.8408                                         !
 ! A32   A(7,12,21)            107.3386                                         !
 ! A33   A(19,12,21)           112.7299                                         !
 ! A34   A(11,16,18)           100.5172                                         !
 ! A35   A(11,16,20)           102.085                                          !
 ! A36   A(11,16,22)           103.3928                                         !
 ! A37   A(18,16,20)           123.9089                                         !
 ! A38   A(18,16,22)           113.6522                                         !
 ! A39   A(20,16,22)           109.8356                                         !
 ! A40   A(1,18,16)             82.7575                                         !
 ! A41   A(1,18,61)             70.6862                                         !
 ! A42   A(16,18,35)            93.4413                                         !
 ! A43   A(16,18,61)            85.7658                                         !
 ! A44   A(35,18,61)           105.2615                                         !
 ! A45   A(12,19,29)           106.883                                          !
 ! A46   A(12,19,30)           116.7788                                         !
 ! A47   A(12,19,31)           106.5327                                         !
 ! A48   A(29,19,30)           110.3358                                         !
 ! A49   A(29,19,31)           104.9055                                         !
 ! A50   A(30,19,31)           110.6617                                         !
 ! A51   A(16,20,23)           106.6662                                         !
 ! A52   A(16,20,24)           109.6051                                         !
 ! A53   A(16,20,25)           113.5448                                         !
 ! A54   A(23,20,24)           108.1736                                         !
 ! A55   A(23,20,25)           108.4931                                         !
 ! A56   A(24,20,25)           110.1633                                         !
 ! A57   A(12,21,32)           105.6664                                         !
 ! A58   A(12,21,33)           115.0317                                         !
 ! A59   A(12,21,34)           109.2677                                         !
 ! A60   A(32,21,33)           109.6161                                         !
 ! A61   A(32,21,34)           107.3279                                         !
 ! A62   A(33,21,34)           109.6102                                         !
 ! A63   A(16,22,26)           105.9756                                         !
 ! A64   A(16,22,27)           115.9331                                         !
 ! A65   A(16,22,28)           107.6295                                         !
 ! A66   A(26,22,27)           108.7511                                         !
 ! A67   A(26,22,28)           107.4247                                         !
 ! A68   A(27,22,28)           110.7249                                         !
 ! A69   A(20,23,42)           108.6194                                         !
 ! A70   A(20,23,43)           112.949                                          !
 ! A71   A(20,23,44)           111.2812                                         !
 ! A72   A(42,23,43)           108.1072                                         !
 ! A73   A(42,23,44)           108.513                                          !
 ! A74   A(43,23,44)           107.2397                                         !
 ! A75   A(20,24,45)           108.7883                                         !
 ! A76   A(20,24,46)           111.6046                                         !
 ! A77   A(20,24,47)           112.662                                          !
 ! A78   A(45,24,46)           107.4901                                         !
 ! A79   A(45,24,47)           107.3018                                         !
 ! A80   A(46,24,47)           108.7757                                         !
 ! A81   A(20,25,48)           108.7987                                         !
 ! A82   A(20,25,49)           113.3245                                         !
 ! A83   A(20,25,50)           111.8709                                         !
 ! A84   A(48,25,49)           107.4092                                         !
 ! A85   A(48,25,50)           106.819                                          !
 ! A86   A(49,25,50)           108.3254                                         !
 ! A87   A(22,26,57)           109.052                                          !
 ! A88   A(22,26,58)           110.6356                                         !
 ! A89   A(22,26,59)           112.6449                                         !
 ! A90   A(57,26,58)           108.4537                                         !
 ! A91   A(57,26,59)           107.3927                                         !
 ! A92   A(58,26,59)           108.5298                                         !
 ! A93   A(22,27,51)           112.534                                          !
 ! A94   A(22,27,52)           109.2514                                         !
 ! A95   A(22,27,53)           112.2347                                         !
 ! A96   A(51,27,52)           107.1567                                         !
 ! A97   A(51,27,53)           108.2892                                         !
 ! A98   A(52,27,53)           107.1107                                         !
 ! A99   A(22,28,54)           112.7518                                         !
 ! A100  A(22,28,55)           109.8719                                         !
 ! A101  A(22,28,56)           109.4148                                         !
 ! A102  A(54,28,55)           107.9717                                         !
 ! A103  A(54,28,56)           107.7755                                         !
 ! A104  A(55,28,56)           108.9662                                         !
 ! A105  A(19,30,39)           108.4316                                         !
 ! A106  A(19,30,40)           113.0179                                         !
 ! A107  A(19,30,41)           112.7734                                         !
 ! A108  A(39,30,40)           106.9397                                         !
 ! A109  A(39,30,41)           107.3512                                         !
 ! A110  A(40,30,41)           108.0218                                         !
 ! A111  A(21,33,36)           111.2703                                         !
 ! A112  A(21,33,37)           112.6408                                         !
 ! A113  A(21,33,38)           108.6827                                         !
 ! A114  A(36,33,37)           108.6716                                         !
 ! A115  A(36,33,38)           108.0659                                         !
 ! A116  A(37,33,38)           107.336                                          !
 ! A117  A(18,61,62)            86.9412                                         !
 ! A118  A(18,61,63)            14.6295                                         !
 ! A119  A(62,61,63)           101.5682                                         !
 ! A120  L(1,18,35,16,-1)      176.1988                                         !
 ! A121  L(18,35,60,20,-1)     176.0559                                         !
 ! A122  L(1,18,35,16,-2)      183.8916                                         !
 ! A123  L(18,35,60,20,-2)     180.2356                                         !
 ! D1    D(3,1,2,4)              2.0338                                         !
 ! D2    D(3,1,2,7)           -173.4051                                         !
 ! D3    D(18,1,2,4)          -176.7087                                         !
 ! D4    D(18,1,2,7)             7.8524                                         !
 ! D5    D(2,1,3,6)             -0.6239                                         !
 ! D6    D(2,1,3,11)          -179.2773                                         !
 ! D7    D(18,1,3,6)           178.049                                          !
 ! D8    D(18,1,3,11)           -0.6044                                         !
 ! D9    D(2,1,18,16)         -165.1259                                         !
 ! D10   D(2,1,18,61)          106.8413                                         !
 ! D11   D(3,1,18,16)           16.1588                                         !
 ! D12   D(3,1,18,61)          -71.8739                                         !
 ! D13   D(1,2,4,5)             -1.8264                                         !
 ! D14   D(1,2,4,8)            179.0227                                         !
 ! D15   D(7,2,4,5)            173.1572                                         !
 ! D16   D(7,2,4,8)             -5.9938                                         !
 ! D17   D(1,2,7,12)           -35.6609                                         !
 ! D18   D(1,2,7,13)          -162.1755                                         !
 ! D19   D(1,2,7,14)            81.4438                                         !
 ! D20   D(4,2,7,12)           149.0164                                         !
 ! D21   D(4,2,7,13)            22.5018                                         !
 ! D22   D(4,2,7,14)           -93.8788                                         !
 ! D23   D(1,3,6,5)             -0.9315                                         !
 ! D24   D(1,3,6,10)           179.9207                                         !
 ! D25   D(11,3,6,5)           177.6232                                         !
 ! D26   D(11,3,6,10)           -1.5246                                         !
 ! D27   D(1,3,11,15)           93.6116                                         !
 ! D28   D(1,3,11,16)          -19.4416                                         !
 ! D29   D(1,3,11,17)         -148.5687                                         !
 ! D30   D(6,3,11,15)          -84.9951                                         !
 ! D31   D(6,3,11,16)          161.9517                                         !
 ! D32   D(6,3,11,17)           32.8246                                         !
 ! D33   D(2,4,5,6)              0.2425                                         !
 ! D34   D(2,4,5,9)           -179.6893                                         !
 ! D35   D(8,4,5,6)            179.383                                          !
 ! D36   D(8,4,5,9)             -0.5487                                         !
 ! D37   D(4,5,6,3)              1.093                                          !
 ! D38   D(4,5,6,10)          -179.7713                                         !
 ! D39   D(9,5,6,3)           -178.9752                                         !
 ! D40   D(9,5,6,10)             0.1605                                         !
 ! D41   D(2,7,12,19)          -74.5512                                         !
 ! D42   D(2,7,12,21)          161.9467                                         !
 ! D43   D(13,7,12,19)          51.3005                                         !
 ! D44   D(13,7,12,21)         -72.2016                                         !
 ! D45   D(14,7,12,19)         168.0052                                         !
 ! D46   D(14,7,12,21)          44.503                                          !
 ! D47   D(3,11,16,18)          27.6325                                         !
 ! D48   D(3,11,16,20)         155.9497                                         !
 ! D49   D(3,11,16,22)         -89.9903                                         !
 ! D50   D(15,11,16,18)        -87.8882                                         !
 ! D51   D(15,11,16,20)         40.4291                                         !
 ! D52   D(15,11,16,22)        154.489                                          !
 ! D53   D(17,11,16,18)        154.6667                                         !
 ! D54   D(17,11,16,20)        -77.016                                          !
 ! D55   D(17,11,16,22)         37.0439                                         !
 ! D56   D(7,12,19,29)          59.7498                                         !
 ! D57   D(7,12,19,30)         -64.3041                                         !
 ! D58   D(7,12,19,31)         171.4958                                         !
 ! D59   D(21,12,19,29)       -179.9051                                         !
 ! D60   D(21,12,19,30)         56.0411                                         !
 ! D61   D(21,12,19,31)        -68.1591                                         !
 ! D62   D(7,12,21,32)         -65.4588                                         !
 ! D63   D(7,12,21,33)         173.4916                                         !
 ! D64   D(7,12,21,34)          49.7376                                         !
 ! D65   D(19,12,21,32)        172.2054                                         !
 ! D66   D(19,12,21,33)         51.1558                                         !
 ! D67   D(19,12,21,34)        -72.5982                                         !
 ! D68   D(11,16,18,1)         -20.9378                                         !
 ! D69   D(11,16,18,35)        155.1706                                         !
 ! D70   D(11,16,18,61)         50.1023                                         !
 ! D71   D(20,16,18,1)        -133.3564                                         !
 ! D72   D(20,16,18,35)         42.752                                          !
 ! D73   D(20,16,18,61)        -62.3162                                         !
 ! D74   D(22,16,18,1)          88.8476                                         !
 ! D75   D(22,16,18,35)        -95.044                                          !
 ! D76   D(22,16,18,61)        159.8877                                         !
 ! D77   D(11,16,20,23)        -81.1089                                         !
 ! D78   D(11,16,20,24)        162.0035                                         !
 ! D79   D(11,16,20,25)         38.3379                                         !
 ! D80   D(18,16,20,23)         30.5354                                         !
 ! D81   D(18,16,20,24)        -86.3523                                         !
 ! D82   D(18,16,20,25)        149.9822                                         !
 ! D83   D(22,16,20,23)        169.68                                           !
 ! D84   D(22,16,20,24)         52.7923                                         !
 ! D85   D(22,16,20,25)        -70.8732                                         !
 ! D86   D(11,16,22,26)         52.7593                                         !
 ! D87   D(11,16,22,27)        -67.973                                          !
 ! D88   D(11,16,22,28)        167.4556                                         !
 ! D89   D(18,16,22,26)        -55.2471                                         !
 ! D90   D(18,16,22,27)       -175.9794                                         !
 ! D91   D(18,16,22,28)         59.4492                                         !
 ! D92   D(20,16,22,26)        161.1006                                         !
 ! D93   D(20,16,22,27)         40.3684                                         !
 ! D94   D(20,16,22,28)        -84.203                                          !
 ! D95   D(1,18,61,62)          -6.9537                                         !
 ! D96   D(1,18,61,63)         172.0022                                         !
 ! D97   D(16,18,61,62)        -90.7533                                         !
 ! D98   D(16,18,61,63)         88.2025                                         !
 ! D99   D(35,18,61,62)        176.8287                                         !
 ! D100  D(35,18,61,63)         -4.2155                                         !
 ! D101  D(12,19,30,39)       -179.3974                                         !
 ! D102  D(12,19,30,40)         62.2255                                         !
 ! D103  D(12,19,30,41)        -60.657                                          !
 ! D104  D(29,19,30,39)         58.3283                                         !
 ! D105  D(29,19,30,40)        -60.0489                                         !
 ! D106  D(29,19,30,41)        177.0687                                         !
 ! D107  D(31,19,30,39)        -57.3262                                         !
 ! D108  D(31,19,30,40)       -175.7034                                         !
 ! D109  D(31,19,30,41)         61.4142                                         !
 ! D110  D(16,20,23,42)        178.0071                                         !
 ! D111  D(16,20,23,43)         58.0859                                         !
 ! D112  D(16,20,23,44)        -62.5994                                         !
 ! D113  D(24,20,23,42)        -64.1588                                         !
 ! D114  D(24,20,23,43)        175.92                                           !
 ! D115  D(24,20,23,44)         55.2348                                         !
 ! D116  D(25,20,23,42)         55.336                                          !
 ! D117  D(25,20,23,43)        -64.5852                                         !
 ! D118  D(25,20,23,44)        174.7296                                         !
 ! D119  D(16,20,24,45)        170.1546                                         !
 ! D120  D(16,20,24,46)         51.7191                                         !
 ! D121  D(16,20,24,47)        -70.9985                                         !
 ! D122  D(23,20,24,45)         54.2193                                         !
 ! D123  D(23,20,24,46)        -64.2162                                         !
 ! D124  D(23,20,24,47)        173.0662                                         !
 ! D125  D(25,20,24,45)        -64.2171                                         !
 ! D126  D(25,20,24,46)        177.3474                                         !
 ! D127  D(25,20,24,47)         54.6299                                         !
 ! D128  D(16,20,25,48)        179.4717                                         !
 ! D129  D(16,20,25,49)         60.0684                                         !
 ! D130  D(16,20,25,50)        -62.7533                                         !
 ! D131  D(23,20,25,48)        -62.129                                          !
 ! D132  D(23,20,25,49)        178.4677                                         !
 ! D133  D(23,20,25,50)         55.6459                                         !
 ! D134  D(24,20,25,48)         56.1111                                         !
 ! D135  D(24,20,25,49)        -63.2922                                         !
 ! D136  D(24,20,25,50)        173.886                                          !
 ! D137  D(12,21,33,36)         55.2396                                         !
 ! D138  D(12,21,33,37)        -67.0772                                         !
 ! D139  D(12,21,33,38)        174.1164                                         !
 ! D140  D(32,21,33,36)        -63.6303                                         !
 ! D141  D(32,21,33,37)        174.0528                                         !
 ! D142  D(32,21,33,38)         55.2464                                         !
 ! D143  D(34,21,33,36)        178.8121                                         !
 ! D144  D(34,21,33,37)         56.4953                                         !
 ! D145  D(34,21,33,38)        -62.3111                                         !
 ! D146  D(16,22,26,57)        172.2994                                         !
 ! D147  D(16,22,26,58)         53.0973                                         !
 ! D148  D(16,22,26,59)        -68.5747                                         !
 ! D149  D(27,22,26,57)        -62.4205                                         !
 ! D150  D(27,22,26,58)        178.3773                                         !
 ! D151  D(27,22,26,59)         56.7053                                         !
 ! D152  D(28,22,26,57)         57.4629                                         !
 ! D153  D(28,22,26,58)        -61.7393                                         !
 ! D154  D(28,22,26,59)        176.5888                                         !
 ! D155  D(16,22,27,51)        -66.7521                                         !
 ! D156  D(16,22,27,52)        174.354                                          !
 ! D157  D(16,22,27,53)         55.7045                                         !
 ! D158  D(26,22,27,51)        174.0202                                         !
 ! D159  D(26,22,27,52)         55.1263                                         !
 ! D160  D(26,22,27,53)        -63.5232                                         !
 ! D161  D(28,22,27,51)         56.2088                                         !
 ! D162  D(28,22,27,52)        -62.6851                                         !
 ! D163  D(28,22,27,53)        178.6654                                         !
 ! D164  D(16,22,28,54)         67.9855                                         !
 ! D165  D(16,22,28,55)        -52.5015                                         !
 ! D166  D(16,22,28,56)       -172.093                                          !
 ! D167  D(26,22,28,54)       -178.285                                          !
 ! D168  D(26,22,28,55)         61.2279                                         !
 ! D169  D(26,22,28,56)        -58.3635                                         !
 ! D170  D(27,22,28,54)        -59.6662                                         !
 ! D171  D(27,22,28,55)        179.8468                                         !
 ! D172  D(27,22,28,56)         60.2553                                         !
 --------------------------------------------------------------------------------
 Stoichiometry    C20H37N2O2PRu
 Framework group  C1[X(C20H37N2O2PRu)]
 Deg. of freedom   183
 Full point group                 C1      NOp   1
 Largest Abelian subgroup         C1      NOp   1
 Largest concise Abelian subgroup C1      NOp   1
                         Standard orientation:                         
 ---------------------------------------------------------------------
 Center     Atomic      Atomic             Coordinates (Angstroms)
 Number     Number       Type             X           Y           Z
 ---------------------------------------------------------------------
      1          7           0       -0.791329    1.424146    0.016833
      2          6           0       -2.023798    1.841241    0.370166
      3          6           0        0.131075    2.309282   -0.429402
      4          6           0       -2.405847    3.171041    0.252704
      5          6           0       -1.469975    4.095739   -0.208329
      6          6           0       -0.189407    3.661594   -0.540372
      7          6           0       -2.879068    0.775870    0.988636
      8          1           0       -3.414942    3.477206    0.531356
      9          1           0       -1.737106    5.149242   -0.307175
     10          1           0        0.563649    4.363708   -0.899992
     11          6           0        1.463515    1.744174   -0.812104
     12          7           0       -2.652117   -0.554526    0.392542
     13          1           0       -3.944710    1.064784    0.964883
     14          1           0       -2.590516    0.700300    2.049898
     15          1           0        1.445453    1.537490   -1.895688
     16         15           0        1.708323    0.051418   -0.030240
     17          1           0        2.272738    2.466795   -0.624448
     18         44           0       -0.405995   -0.620888    0.153611
     19          6           0       -3.273633   -0.643575   -0.952188
     20          6           0        2.978447   -0.747827   -1.200115
     21          6           0       -3.189494   -1.560642    1.339792
     22          6           0        2.534104    0.453465    1.647015
     23          6           0        2.194575   -1.274035   -2.406099
     24          6           0        3.639321   -1.939315   -0.503682
     25          6           0        4.045271    0.227643   -1.702664
     26          6           0        1.631383    1.490498    2.323737
     27          6           0        3.952806    1.010181    1.575784
     28          6           0        2.492799   -0.817267    2.500755
     29          1           0       -2.808800    0.135486   -1.570502
     30          6           0       -4.791018   -0.533960   -1.015249
     31          1           0       -2.935297   -1.591096   -1.390467
     32          1           0       -2.559342   -1.488419    2.239150
     33          6           0       -3.186317   -2.984995    0.830537
     34          1           0       -4.219082   -1.272926    1.633984
     35          6           0        0.039937   -2.389334    0.140728
     36          1           0       -2.181976   -3.291490    0.511477
     37          1           0       -3.883271   -3.136880   -0.006450
     38          1           0       -3.503375   -3.651531    1.646167
     39          1           0       -5.103177   -0.627872   -2.066000
     40          1           0       -5.167870    0.434999   -0.654144
     41          1           0       -5.299278   -1.328999   -0.449682
     42          1           0        2.907148   -1.713938   -3.124779
     43          1           0        1.627431   -0.487895   -2.924921
     44          1           0        1.477102   -2.049628   -2.107427
     45          1           0        4.236551   -2.497270   -1.244430
     46          1           0        2.891962   -2.633003   -0.091526
     47          1           0        4.321070   -1.633781    0.302652
     48          1           0        4.741820   -0.316484   -2.362792
     49          1           0        4.639262    0.675000   -0.896130
     50          1           0        3.608007    1.040178   -2.301811
     51          1           0        4.675067    0.274786    1.195721
     52          1           0        4.282647    1.296681    2.589412
     53          1           0        4.015328    1.912665    0.947470
     54          1           0        3.138354   -1.613766    2.108095
     55          1           0        1.463379   -1.205147    2.544926
     56          1           0        2.831935   -0.582649    3.524435
     57          1           0        1.984859    1.657149    3.355219
     58          1           0        0.591197    1.131305    2.365461
     59          1           0        1.645003    2.464228    1.809766
     60          8           0        0.396575   -3.506205    0.097180
     61          8           0       -0.690104    0.211730   -2.972027
     62          1           0       -0.958130    1.085129   -2.661514
     63          1           0       -0.529836   -0.266738   -2.110208
 ---------------------------------------------------------------------
 Rotational constants (GHZ):           0.2431909           0.1619533           0.1320526
 General basis read from cards:  (5D, 7F)
 ======================================================================================================
                                       Pseudopotential Parameters
 ======================================================================================================
  Center     Atomic      Valence      Angular      Power
  Number     Number     Electrons     Momentum     of R      Exponent        Coefficient   SO-Coeffient
 ======================================================================================================
    1          7
                                   No pseudopotential on this center.
    2          6
                                   No pseudopotential on this center.
    3          6
                                   No pseudopotential on this center.
    4          6
                                   No pseudopotential on this center.
    5          6
                                   No pseudopotential on this center.
    6          6
                                   No pseudopotential on this center.
    7          6
                                   No pseudopotential on this center.
    8          1
                                   No pseudopotential on this center.
    9          1
                                   No pseudopotential on this center.
   10          1
                                   No pseudopotential on this center.
   11          6
                                   No pseudopotential on this center.
   12          7
                                   No pseudopotential on this center.
   13          1
                                   No pseudopotential on this center.
   14          1
                                   No pseudopotential on this center.
   15          1
                                   No pseudopotential on this center.
   16         15
                                   No pseudopotential on this center.
   17          1
                                   No pseudopotential on this center.
   18         44           16
                                      G and up 
                                                     2        1.0000000        0.00000000    0.00000000
                                      S - G
                                                     2       11.1052690      209.82297100    0.00000000
                                                     2        5.4147450       30.65472600    0.00000000
                                      P - G
                                                     2        9.7712710      146.33618200    0.00000000
                                                     2        5.0739910       24.12787700    0.00000000
                                      D - G
                                                     2        7.6714230       67.51589700    0.00000000
                                                     2        4.1365650        9.87010400    0.00000000
                                      F - G
                                                     2       11.3600000      -28.34061600    0.00000000
                                                     2        5.6800000       -4.94462900    0.00000000
   19          6
                                   No pseudopotential on this center.
   20          6
                                   No pseudopotential on this center.
   21          6
                                   No pseudopotential on this center.
   22          6
                                   No pseudopotential on this center.
   23          6
                                   No pseudopotential on this center.
   24          6
                                   No pseudopotential on this center.
   25          6
                                   No pseudopotential on this center.
   26          6
                                   No pseudopotential on this center.
   27          6
                                   No pseudopotential on this center.
   28          6
                                   No pseudopotential on this center.
   29          1
                                   No pseudopotential on this center.
   30          6
                                   No pseudopotential on this center.
   31          1
                                   No pseudopotential on this center.
   32          1
                                   No pseudopotential on this center.
   33          6
                                   No pseudopotential on this center.
   34          1
                                   No pseudopotential on this center.
   35          6
                                   No pseudopotential on this center.
   36          1
                                   No pseudopotential on this center.
   37          1
                                   No pseudopotential on this center.
   38          1
                                   No pseudopotential on this center.
   39          1
                                   No pseudopotential on this center.
   40          1
                                   No pseudopotential on this center.
   41          1
                                   No pseudopotential on this center.
   42          1
                                   No pseudopotential on this center.
   43          1
                                   No pseudopotential on this center.
   44          1
                                   No pseudopotential on this center.
   45          1
                                   No pseudopotential on this center.
   46          1
                                   No pseudopotential on this center.
   47          1
                                   No pseudopotential on this center.
   48          1
                                   No pseudopotential on this center.
   49          1
                                   No pseudopotential on this center.
   50          1
                                   No pseudopotential on this center.
   51          1
                                   No pseudopotential on this center.
   52          1
                                   No pseudopotential on this center.
   53          1
                                   No pseudopotential on this center.
   54          1
                                   No pseudopotential on this center.
   55          1
                                   No pseudopotential on this center.
   56          1
                                   No pseudopotential on this center.
   57          1
                                   No pseudopotential on this center.
   58          1
                                   No pseudopotential on this center.
   59          1
                                   No pseudopotential on this center.
   60          8
                                   No pseudopotential on this center.
   61          8
                                   No pseudopotential on this center.
   62          1
                                   No pseudopotential on this center.
   63          1
                                   No pseudopotential on this center.
 ======================================================================================================
 There are  1473 symmetry adapted cartesian basis functions of A   symmetry.
 There are  1308 symmetry adapted basis functions of A   symmetry.
  1308 basis functions,  2037 primitive gaussians,  1473 cartesian basis functions
   109 alpha electrons      109 beta electrons
       nuclear repulsion energy      3216.9048555646 Hartrees.
 NAtoms=   63 NActive=   63 NUniq=   63 SFac= 1.00D+00 NAtFMM=   60 NAOKFM=T Big=T
 Integral buffers will be    131072 words long.
 Raffenetti 2 integral format.
 Two-electron integral symmetry is turned on.
 Nuclear repulsion after empirical dispersion term =     3216.8085760785 Hartrees.
 ------------------------------------------------------------------------------
 Polarizable Continuum Model (PCM)
 =================================
 Model                : PCM.
 Atomic radii         : SMD-Coulomb.
 Polarization charges : Total charges.
 Charge compensation  : None.
 Solution method      : On-the-fly selection.
 Cavity type          : VdW (van der Waals Surface) (Alpha=1.000).
 Cavity algorithm     : GePol (No added spheres)
                        Default sphere list used, NSphG=   63.
                        Lebedev-Laikov grids with approx.  5.0 points / Ang**2.
                        Smoothing algorithm: York/Karplus (Gamma=1.0000).
                        Polarization charges: spherical gaussians, with
                                              point-specific exponents (IZeta= 3).
                        Self-potential: point-specific (ISelfS= 7).
                        Self-field    : sphere-specific E.n sum rule (ISelfD= 2).
 Solvent              : Water, Eps=  78.355300 Eps(inf)=   1.777849
 ------------------------------------------------------------------------------
 ------------------------------------------------------------------------------
 Atomic radii for non-electrostatic terms: SMD-CDS.
 ------------------------------------------------------------------------------
 Nuclear repulsion after PCM non-electrostatic terms =     3216.8262278585 Hartrees.
 One-electron integrals computed using PRISM.
   1 Symmetry operations used in ECPInt.
 ECPInt:  NShTT=  119316 NPrTT=  422118 LenC2=  102687 LenP2D=  238295.
 LDataN:  DoStor=T MaxTD1= 7 Len=  274
 Number of processors reduced to  11 by ecpmxn.
 NBasis=  1308 RedAO= T EigKep=  3.93D-05  NBF=  1308
 NBsUse=  1308 1.00D-06 EigRej= -1.00D+00 NBFU=  1308
 Defaulting to unpruned grid for atomic number  44.
 ExpMin= 1.60D-02 ExpMax= 3.12D+05 ExpMxC= 9.87D+02 IAcc=3 IRadAn=         5 AccDes= 0.00D+00
 Harris functional with IExCor= 1009 and IRadAn=       5 diagonalized for initial guess.
 HarFok:  IExCor= 1009 AccDes= 0.00D+00 IRadAn=         5 IDoV= 1 UseB2=F ITyADJ=14
 ICtDFT=  3500011 ScaDFX=  1.000000  1.000000  1.000000  1.000000
 Defaulting to unpruned grid for atomic number  44.
 FoFCou: FMM=F IPFlag=           0 FMFlag=      100000 FMFlg1=        2001
         NFxFlg=           0 DoJE=T BraDBF=F KetDBF=T FulRan=T
         wScrn=  0.000000 ICntrl=       500 IOpCl=  0 I1Cent=   200000004 NGrid=           0
         NMat0=    1 NMatS0=      1 NMatT0=    0 NMatD0=    1 NMtDS0=    0 NMtDT0=    0
 Petite list used in FoFCou.
 Requested convergence on RMS density matrix=1.00D-08 within 128 cycles.
 Requested convergence on MAX density matrix=1.00D-06.
 Requested convergence on             energy=1.00D-06.
 No special actions if energy rises.
 Defaulting to unpruned grid for atomic number  44.
 Defaulting to unpruned grid for atomic number  44.
 Defaulting to unpruned grid for atomic number  44.
 Defaulting to unpruned grid for atomic number  44.
 Defaulting to unpruned grid for atomic number  44.
 Defaulting to unpruned grid for atomic number  44.
 Defaulting to unpruned grid for atomic number  44.
 Defaulting to unpruned grid for atomic number  44.
 Defaulting to unpruned grid for atomic number  44.
 Defaulting to unpruned grid for atomic number  44.
 Defaulting to unpruned grid for atomic number  44.
 Defaulting to unpruned grid for atomic number  44.
 Defaulting to unpruned grid for atomic number  44.
 Defaulting to unpruned grid for atomic number  44.
 Defaulting to unpruned grid for atomic number  44.
 Defaulting to unpruned grid for atomic number  44.
 Defaulting to unpruned grid for atomic number  44.
 Defaulting to unpruned grid for atomic number  44.
 Defaulting to unpruned grid for atomic number  44.
 Defaulting to unpruned grid for atomic number  44.
 Inv3:  Mode=1 IEnd=    49816875.
 Iteration    1 A*A^-1 deviation from unit magnitude is 6.22D-15 for   1790.
 Iteration    1 A*A^-1 deviation from orthogonality  is 1.02D-14 for   4067   1876.
 Iteration    1 A^-1*A deviation from unit magnitude is 5.11D-15 for   1705.
 Iteration    1 A^-1*A deviation from orthogonality  is 1.50D-14 for   4073   4067.
 Error on total polarization charges =  0.08064
 SCF Done:  E(RPBE1PBE) =  -1479.80012425     A.U. after   18 cycles
            NFock= 18  Conv=0.32D-08     -V/T= 2.0491
 SMD-CDS (non-electrostatic) energy       (kcal/mol) =      11.08
 (included in total energy above)

 **********************************************************************

            Population analysis using the SCF density.

 **********************************************************************

 Orbital symmetries:
       Occupied  (A) (A) (A) (A) (A) (A) (A) (A) (A) (A) (A) (A)
                 (A) (A) (A) (A) (A) (A) (A) (A) (A) (A) (A) (A)
                 (A) (A) (A) (A) (A) (A) (A) (A) (A) (A) (A) (A)
                 (A) (A) (A) (A) (A) (A) (A) (A) (A) (A) (A) (A)
                 (A) (A) (A) (A) (A) (A) (A) (A) (A) (A) (A) (A)
                 (A) (A) (A) (A) (A) (A) (A) (A) (A) (A) (A) (A)
                 (A) (A) (A) (A) (A) (A) (A) (A) (A) (A) (A) (A)
                 (A) (A) (A) (A) (A) (A) (A) (A) (A) (A) (A) (A)
                 (A) (A) (A) (A) (A) (A) (A) (A) (A) (A) (A) (A)
                 (A)
       Virtual   (A) (A) (A) (A) (A) (A) (A) (A) (A) (A) (A) (A)
                 (A) (A) (A) (A) (A) (A) (A) (A) (A) (A) (A) (A)
                 (A) (A) (A) (A) (A) (A) (A) (A) (A) (A) (A) (A)
                 (A) (A) (A) (A) (A) (A) (A) (A) (A) (A) (A) (A)
                 (A) (A) (A) (A) (A) (A) (A) (A) (A) (A) (A) (A)
                 (A) (A) (A) (A) (A) (A) (A) (A) (A) (A) (A) (A)
                 (A) (A) (A) (A) (A) (A) (A) (A) (A) (A) (A) (A)
                 (A) (A) (A) (A) (A) (A) (A) (A) (A) (A) (A) (A)
                 (A) (A) (A) (A) (A) (A) (A) (A) (A) (A) (A) (A)
                 (A) (A) (A) (A) (A) (A) (A) (A) (A) (A) (A) (A)
                 (A) (A) (A) (A) (A) (A) (A) (A) (A) (A) (A) (A)
                 (A) (A) (A) (A) (A) (A) (A) (A) (A) (A) (A) (A)
                 (A) (A) (A) (A) (A) (A) (A) (A) (A) (A) (A) (A)
                 (A) (A) (A) (A) (A) (A) (A) (A) (A) (A) (A) (A)
                 (A) (A) (A) (A) (A) (A) (A) (A) (A) (A) (A) (A)
                 (A) (A) (A) (A) (A) (A) (A) (A) (A) (A) (A) (A)
                 (A) (A) (A) (A) (A) (A) (A) (A) (A) (A) (A) (A)
                 (A) (A) (A) (A) (A) (A) (A) (A) (A) (A) (A) (A)
                 (A) (A) (A) (A) (A) (A) (A) (A) (A) (A) (A) (A)
                 (A) (A) (A) (A) (A) (A) (A) (A) (A) (A) (A) (A)
                 (A) (A) (A) (A) (A) (A) (A) (A) (A) (A) (A) (A)
                 (A) (A) (A) (A) (A) (A) (A) (A) (A) (A) (A) (A)
                 (A) (A) (A) (A) (A) (A) (A) (A) (A) (A) (A) (A)
                 (A) (A) (A) (A) (A) (A) (A) (A) (A) (A) (A) (A)
                 (A) (A) (A) (A) (A) (A) (A) (A) (A) (A) (A) (A)
                 (A) (A) (A) (A) (A) (A) (A) (A) (A) (A) (A) (A)
                 (A) (A) (A) (A) (A) (A) (A) (A) (A) (A) (A) (A)
                 (A) (A) (A) (A) (A) (A) (A) (A) (A) (A) (A) (A)
                 (A) (A) (A) (A) (A) (A) (A) (A) (A) (A) (A) (A)
                 (A) (A) (A) (A) (A) (A) (A) (A) (A) (A) (A) (A)
                 (A) (A) (A) (A) (A) (A) (A) (A) (A) (A) (A) (A)
                 (A) (A) (A) (A) (A) (A) (A) (A) (A) (A) (A) (A)
                 (A) (A) (A) (A) (A) (A) (A) (A) (A) (A) (A) (A)
                 (A) (A) (A) (A) (A) (A) (A) (A) (A) (A) (A) (A)
                 (A) (A) (A) (A) (A) (A) (A) (A) (A) (A) (A) (A)
                 (A) (A) (A) (A) (A) (A) (A) (A) (A) (A) (A) (A)
                 (A) (A) (A) (A) (A) (A) (A) (A) (A) (A) (A) (A)
                 (A) (A) (A) (A) (A) (A) (A) (A) (A) (A) (A) (A)
                 (A) (A) (A) (A) (A) (A) (A) (A) (A) (A) (A) (A)
                 (A) (A) (A) (A) (A) (A) (A) (A) (A) (A) (A) (A)
                 (A) (A) (A) (A) (A) (A) (A) (A) (A) (A) (A) (A)
                 (A) (A) (A) (A) (A) (A) (A) (A) (A) (A) (A) (A)
                 (A) (A) (A) (A) (A) (A) (A) (A) (A) (A) (A) (A)
                 (A) (A) (A) (A) (A) (A) (A) (A) (A) (A) (A) (A)
                 (A) (A) (A) (A) (A) (A) (A) (A) (A) (A) (A) (A)
                 (A) (A) (A) (A) (A) (A) (A) (A) (A) (A) (A) (A)
                 (A) (A) (A) (A) (A) (A) (A) (A) (A) (A) (A) (A)
                 (A) (A) (A) (A) (A) (A) (A) (A) (A) (A) (A) (A)
                 (A) (A) (A) (A) (A) (A) (A) (A) (A) (A) (A) (A)
                 (A) (A) (A) (A) (A) (A) (A) (A) (A) (A) (A) (A)
                 (A) (A) (A) (A) (A) (A) (A) (A) (A) (A) (A) (A)
                 (A) (A) (A) (A) (A) (A) (A) (A) (A) (A) (A) (A)
                 (A) (A) (A) (A) (A) (A) (A) (A) (A) (A) (A) (A)
                 (A) (A) (A) (A) (A) (A) (A) (A) (A) (A) (A) (A)
                 (A) (A) (A) (A) (A) (A) (A) (A) (A) (A) (A) (A)
                 (A) (A) (A) (A) (A) (A) (A) (A) (A) (A) (A) (A)
                 (A) (A) (A) (A) (A) (A) (A) (A) (A) (A) (A) (A)
                 (A) (A) (A) (A) (A) (A) (A) (A) (A) (A) (A) (A)
                 (A) (A) (A) (A) (A) (A) (A) (A) (A) (A) (A) (A)
                 (A) (A) (A) (A) (A) (A) (A) (A) (A) (A) (A) (A)
                 (A) (A) (A) (A) (A) (A) (A) (A) (A) (A) (A) (A)
                 (A) (A) (A) (A) (A) (A) (A) (A) (A) (A) (A) (A)
                 (A) (A) (A) (A) (A) (A) (A) (A) (A) (A) (A) (A)
                 (A) (A) (A) (A) (A) (A) (A) (A) (A) (A) (A) (A)
                 (A) (A) (A) (A) (A) (A) (A) (A) (A) (A) (A) (A)
                 (A) (A) (A) (A) (A) (A) (A) (A) (A) (A) (A) (A)
                 (A) (A) (A) (A) (A) (A) (A) (A) (A) (A) (A) (A)
                 (A) (A) (A) (A) (A) (A) (A) (A) (A) (A) (A) (A)
                 (A) (A) (A) (A) (A) (A) (A) (A) (A) (A) (A) (A)
                 (A) (A) (A) (A) (A) (A) (A) (A) (A) (A) (A) (A)
                 (A) (A) (A) (A) (A) (A) (A) (A) (A) (A) (A) (A)
                 (A) (A) (A) (A) (A) (A) (A) (A) (A) (A) (A) (A)
                 (A) (A) (A) (A) (A) (A) (A) (A) (A) (A) (A) (A)
                 (A) (A) (A) (A) (A) (A) (A) (A) (A) (A) (A) (A)
                 (A) (A) (A) (A) (A) (A) (A) (A) (A) (A) (A) (A)
                 (A) (A) (A) (A) (A) (A) (A) (A) (A) (A) (A) (A)
                 (A) (A) (A) (A) (A) (A) (A) (A) (A) (A) (A) (A)
                 (A) (A) (A) (A) (A) (A) (A) (A) (A) (A) (A) (A)
                 (A) (A) (A) (A) (A) (A) (A) (A) (A) (A) (A) (A)
                 (A) (A) (A) (A) (A) (A) (A) (A) (A) (A) (A) (A)
                 (A) (A) (A) (A) (A) (A) (A) (A) (A) (A) (A) (A)
                 (A) (A) (A) (A) (A) (A) (A) (A) (A) (A) (A) (A)
                 (A) (A) (A) (A) (A) (A) (A) (A) (A) (A) (A) (A)
                 (A) (A) (A) (A) (A) (A) (A) (A) (A) (A) (A) (A)
                 (A) (A) (A) (A) (A) (A) (A) (A) (A) (A) (A) (A)
                 (A) (A) (A) (A) (A) (A) (A) (A) (A) (A) (A) (A)
                 (A) (A) (A) (A) (A) (A) (A) (A) (A) (A) (A) (A)
                 (A) (A) (A) (A) (A) (A) (A) (A) (A) (A) (A) (A)
                 (A) (A) (A) (A) (A) (A) (A) (A) (A) (A) (A) (A)
                 (A) (A) (A) (A) (A) (A) (A) (A) (A) (A) (A) (A)
                 (A) (A) (A) (A) (A) (A) (A) (A) (A) (A) (A) (A)
                 (A) (A) (A) (A) (A) (A) (A) (A) (A) (A) (A) (A)
                 (A) (A) (A) (A) (A) (A) (A) (A) (A) (A) (A) (A)
                 (A) (A) (A) (A) (A) (A) (A) (A) (A) (A) (A) (A)
                 (A) (A) (A) (A) (A) (A) (A) (A) (A) (A) (A) (A)
                 (A) (A) (A) (A) (A) (A) (A) (A) (A) (A) (A) (A)
                 (A) (A) (A) (A) (A) (A) (A) (A) (A) (A) (A) (A)
                 (A) (A) (A) (A) (A) (A) (A) (A) (A) (A) (A) (A)
                 (A) (A) (A) (A) (A) (A) (A) (A) (A) (A) (A) (A)
                 (A) (A) (A) (A) (A) (A) (A) (A) (A) (A) (A)
 The electronic state is 1-A.
 Alpha  occ. eigenvalues --  -77.23826 -19.21769 -19.18839 -14.42295 -14.42231
 Alpha  occ. eigenvalues --  -10.28629 -10.28253 -10.27888 -10.25817 -10.25068
 Alpha  occ. eigenvalues --  -10.24694 -10.24385 -10.24198 -10.23957 -10.23924
 Alpha  occ. eigenvalues --  -10.23868 -10.22919 -10.20741 -10.20581 -10.20543
 Alpha  occ. eigenvalues --  -10.20533 -10.20478 -10.20471 -10.20220 -10.20077
 Alpha  occ. eigenvalues --   -6.61196  -4.74902  -4.74791  -4.74516  -2.97600
 Alpha  occ. eigenvalues --   -1.82916  -1.81366  -1.78251  -1.09473  -1.01576
 Alpha  occ. eigenvalues --   -1.00087  -0.96445  -0.84533  -0.83579  -0.82930
 Alpha  occ. eigenvalues --   -0.82153  -0.77814  -0.76874  -0.73775  -0.70345
 Alpha  occ. eigenvalues --   -0.70196  -0.69748  -0.69235  -0.69058  -0.66018
 Alpha  occ. eigenvalues --   -0.65347  -0.62962  -0.61399  -0.57735  -0.55545
 Alpha  occ. eigenvalues --   -0.54683  -0.53033  -0.52682  -0.51869  -0.51179
 Alpha  occ. eigenvalues --   -0.50951  -0.49790  -0.48085  -0.47401  -0.46065
 Alpha  occ. eigenvalues --   -0.45451  -0.45342  -0.45054  -0.44644  -0.44260
 Alpha  occ. eigenvalues --   -0.43849  -0.43350  -0.42821  -0.42105  -0.41890
 Alpha  occ. eigenvalues --   -0.41786  -0.41282  -0.41205  -0.40533  -0.40160
 Alpha  occ. eigenvalues --   -0.39642  -0.39124  -0.38861  -0.38471  -0.38155
 Alpha  occ. eigenvalues --   -0.38037  -0.37798  -0.36664  -0.36374  -0.36348
 Alpha  occ. eigenvalues --   -0.35879  -0.34899  -0.34585  -0.34437  -0.34296
 Alpha  occ. eigenvalues --   -0.33198  -0.32914  -0.32284  -0.32003  -0.31442
 Alpha  occ. eigenvalues --   -0.31303  -0.30536  -0.28927  -0.26784  -0.26038
 Alpha  occ. eigenvalues --   -0.21314  -0.19246  -0.17544  -0.15505
 Alpha virt. eigenvalues --   -0.04953  -0.02018   0.00539   0.00790   0.02260
 Alpha virt. eigenvalues --    0.03109   0.03630   0.04034   0.06187   0.06706
 Alpha virt. eigenvalues --    0.07460   0.07781   0.08019   0.08171   0.08876
 Alpha virt. eigenvalues --    0.09063   0.09225   0.09704   0.09940   0.10329
 Alpha virt. eigenvalues --    0.10366   0.11135   0.11572   0.11697   0.12199
 Alpha virt. eigenvalues --    0.12388   0.12785   0.12881   0.13209   0.13294
 Alpha virt. eigenvalues --    0.13881   0.14313   0.14492   0.14676   0.15210
 Alpha virt. eigenvalues --    0.15389   0.15966   0.16168   0.16288   0.16650
 Alpha virt. eigenvalues --    0.16672   0.17197   0.17430   0.17853   0.18181
 Alpha virt. eigenvalues --    0.18569   0.18725   0.18829   0.19179   0.19554
 Alpha virt. eigenvalues --    0.19644   0.20197   0.20290   0.20628   0.20786
 Alpha virt. eigenvalues --    0.21358   0.21636   0.22012   0.22530   0.22966
 Alpha virt. eigenvalues --    0.23410   0.23433   0.24194   0.24868   0.25541
 Alpha virt. eigenvalues --    0.25944   0.26198   0.26510   0.27012   0.27554
 Alpha virt. eigenvalues --    0.27952   0.28310   0.28828   0.29046   0.30121
 Alpha virt. eigenvalues --    0.30460   0.30888   0.31072   0.31375   0.31657
 Alpha virt. eigenvalues --    0.31870   0.32383   0.32806   0.33023   0.33378
 Alpha virt. eigenvalues --    0.33802   0.34031   0.34338   0.35051   0.35174
 Alpha virt. eigenvalues --    0.35800   0.36429   0.37258   0.37548   0.37853
 Alpha virt. eigenvalues --    0.38415   0.38459   0.39335   0.39667   0.39935
 Alpha virt. eigenvalues --    0.40147   0.40360   0.40948   0.41537   0.41785
 Alpha virt. eigenvalues --    0.42304   0.42701   0.42870   0.43472   0.43762
 Alpha virt. eigenvalues --    0.44016   0.44114   0.44514   0.44798   0.45295
 Alpha virt. eigenvalues --    0.45471   0.45738   0.46149   0.46436   0.46501
 Alpha virt. eigenvalues --    0.46823   0.47030   0.47286   0.47404   0.47598
 Alpha virt. eigenvalues --    0.48077   0.48234   0.48590   0.49099   0.49158
 Alpha virt. eigenvalues --    0.49477   0.49848   0.50041   0.50312   0.50689
 Alpha virt. eigenvalues --    0.51007   0.51400   0.51503   0.51898   0.52061
 Alpha virt. eigenvalues --    0.52193   0.52404   0.53111   0.53187   0.53554
 Alpha virt. eigenvalues --    0.53654   0.54234   0.54361   0.54530   0.55099
 Alpha virt. eigenvalues --    0.55138   0.55609   0.55946   0.56147   0.56489
 Alpha virt. eigenvalues --    0.56655   0.57137   0.57259   0.57397   0.57725
 Alpha virt. eigenvalues --    0.58068   0.58314   0.58445   0.58644   0.59210
 Alpha virt. eigenvalues --    0.60106   0.60379   0.60821   0.61105   0.61256
 Alpha virt. eigenvalues --    0.61900   0.62878   0.63276   0.63999   0.64345
 Alpha virt. eigenvalues --    0.64835   0.64922   0.65298   0.65346   0.66346
 Alpha virt. eigenvalues --    0.66622   0.66707   0.67241   0.67890   0.68603
 Alpha virt. eigenvalues --    0.68995   0.69395   0.69809   0.70722   0.71674
 Alpha virt. eigenvalues --    0.72098   0.72640   0.72799   0.73174   0.73904
 Alpha virt. eigenvalues --    0.74465   0.75103   0.75338   0.76041   0.76129
 Alpha virt. eigenvalues --    0.76969   0.77751   0.77872   0.78601   0.78745
 Alpha virt. eigenvalues --    0.79235   0.79565   0.79962   0.80787   0.81240
 Alpha virt. eigenvalues --    0.81949   0.82198   0.82443   0.82993   0.83233
 Alpha virt. eigenvalues --    0.84046   0.84155   0.84953   0.85440   0.85791
 Alpha virt. eigenvalues --    0.86597   0.86778   0.87407   0.87633   0.87875
 Alpha virt. eigenvalues --    0.88087   0.89018   0.89616   0.89882   0.90367
 Alpha virt. eigenvalues --    0.90985   0.91332   0.91657   0.92353   0.92786
 Alpha virt. eigenvalues --    0.92939   0.93556   0.93808   0.94042   0.94496
 Alpha virt. eigenvalues --    0.95056   0.95615   0.95929   0.96015   0.96332
 Alpha virt. eigenvalues --    0.96896   0.97187   0.97883   0.98553   0.98807
 Alpha virt. eigenvalues --    0.98906   0.99547   0.99965   1.00447   1.00676
 Alpha virt. eigenvalues --    1.01008   1.01640   1.02085   1.02422   1.02477
 Alpha virt. eigenvalues --    1.02832   1.03396   1.04086   1.04259   1.04600
 Alpha virt. eigenvalues --    1.04895   1.05421   1.06013   1.06632   1.06929
 Alpha virt. eigenvalues --    1.07169   1.07630   1.08047   1.08645   1.09011
 Alpha virt. eigenvalues --    1.09506   1.10331   1.10694   1.10848   1.11189
 Alpha virt. eigenvalues --    1.11309   1.11908   1.12523   1.12603   1.13243
 Alpha virt. eigenvalues --    1.13773   1.14154   1.14387   1.14934   1.15043
 Alpha virt. eigenvalues --    1.15728   1.16160   1.16501   1.16920   1.17199
 Alpha virt. eigenvalues --    1.17716   1.18018   1.18196   1.18539   1.19109
 Alpha virt. eigenvalues --    1.19463   1.19867   1.20658   1.21168   1.21639
 Alpha virt. eigenvalues --    1.22000   1.22218   1.22585   1.22619   1.22981
 Alpha virt. eigenvalues --    1.24105   1.24494   1.24749   1.24925   1.25455
 Alpha virt. eigenvalues --    1.25621   1.26186   1.26321   1.26587   1.27111
 Alpha virt. eigenvalues --    1.27273   1.27547   1.28212   1.28512   1.28930
 Alpha virt. eigenvalues --    1.29278   1.29523   1.30252   1.30690   1.31116
 Alpha virt. eigenvalues --    1.31239   1.31350   1.31531   1.31736   1.32235
 Alpha virt. eigenvalues --    1.32643   1.33355   1.33623   1.33867   1.34062
 Alpha virt. eigenvalues --    1.34257   1.34937   1.35165   1.35429   1.36001
 Alpha virt. eigenvalues --    1.36257   1.36444   1.36668   1.37277   1.37706
 Alpha virt. eigenvalues --    1.38221   1.38349   1.38658   1.39237   1.39399
 Alpha virt. eigenvalues --    1.39999   1.40394   1.40796   1.40962   1.41152
 Alpha virt. eigenvalues --    1.41804   1.42304   1.42982   1.43221   1.43776
 Alpha virt. eigenvalues --    1.44287   1.44616   1.45313   1.45617   1.45835
 Alpha virt. eigenvalues --    1.46365   1.46879   1.46985   1.47182   1.47864
 Alpha virt. eigenvalues --    1.48708   1.49477   1.49954   1.50479   1.51082
 Alpha virt. eigenvalues --    1.51421   1.51731   1.52521   1.52627   1.53197
 Alpha virt. eigenvalues --    1.53800   1.53963   1.54597   1.54683   1.55541
 Alpha virt. eigenvalues --    1.56154   1.56947   1.57760   1.57806   1.58281
 Alpha virt. eigenvalues --    1.58664   1.58813   1.59394   1.59708   1.60176
 Alpha virt. eigenvalues --    1.60922   1.61483   1.61995   1.62188   1.62510
 Alpha virt. eigenvalues --    1.62754   1.63036   1.63843   1.64435   1.65094
 Alpha virt. eigenvalues --    1.65316   1.65392   1.65909   1.66679   1.67056
 Alpha virt. eigenvalues --    1.67504   1.67812   1.68351   1.69328   1.69889
 Alpha virt. eigenvalues --    1.70765   1.71855   1.72543   1.72979   1.73308
 Alpha virt. eigenvalues --    1.74414   1.75321   1.76333   1.76741   1.77528
 Alpha virt. eigenvalues --    1.78343   1.79077   1.79716   1.80395   1.81312
 Alpha virt. eigenvalues --    1.81868   1.83216   1.84834   1.84961   1.85688
 Alpha virt. eigenvalues --    1.86924   1.88176   1.88621   1.89557   1.89976
 Alpha virt. eigenvalues --    1.91700   1.92266   1.93390   1.93881   1.95288
 Alpha virt. eigenvalues --    1.96091   1.96658   1.97359   1.98161   2.00720
 Alpha virt. eigenvalues --    2.01248   2.02427   2.03099   2.03209   2.05665
 Alpha virt. eigenvalues --    2.07857   2.08915   2.09264   2.10910   2.12275
 Alpha virt. eigenvalues --    2.12912   2.13547   2.16020   2.19971   2.20599
 Alpha virt. eigenvalues --    2.21776   2.23050   2.24441   2.24947   2.25817
 Alpha virt. eigenvalues --    2.28343   2.30737   2.31271   2.31912   2.32600
 Alpha virt. eigenvalues --    2.33565   2.34585   2.35644   2.36329   2.36502
 Alpha virt. eigenvalues --    2.37230   2.37908   2.38627   2.38959   2.39521
 Alpha virt. eigenvalues --    2.41174   2.42466   2.42971   2.43577   2.43956
 Alpha virt. eigenvalues --    2.44552   2.44851   2.45631   2.46507   2.46639
 Alpha virt. eigenvalues --    2.48183   2.48639   2.49373   2.50551   2.50916
 Alpha virt. eigenvalues --    2.51671   2.52351   2.53047   2.53423   2.54178
 Alpha virt. eigenvalues --    2.54643   2.55732   2.56025   2.56279   2.57237
 Alpha virt. eigenvalues --    2.57534   2.58081   2.58211   2.59362   2.59652
 Alpha virt. eigenvalues --    2.60102   2.60978   2.61191   2.62107   2.62677
 Alpha virt. eigenvalues --    2.63102   2.63799   2.64033   2.64341   2.65514
 Alpha virt. eigenvalues --    2.66146   2.66535   2.67353   2.67362   2.68142
 Alpha virt. eigenvalues --    2.68381   2.68944   2.69494   2.69773   2.70533
 Alpha virt. eigenvalues --    2.71073   2.71791   2.71953   2.72344   2.72532
 Alpha virt. eigenvalues --    2.72944   2.73386   2.74047   2.74775   2.75046
 Alpha virt. eigenvalues --    2.75972   2.76324   2.76477   2.77030   2.77560
 Alpha virt. eigenvalues --    2.77847   2.78913   2.79259   2.79445   2.79862
 Alpha virt. eigenvalues --    2.80180   2.80419   2.80766   2.81396   2.81770
 Alpha virt. eigenvalues --    2.82021   2.82620   2.83007   2.83264   2.83362
 Alpha virt. eigenvalues --    2.84215   2.84551   2.84969   2.85736   2.85949
 Alpha virt. eigenvalues --    2.86314   2.86980   2.87245   2.88156   2.88495
 Alpha virt. eigenvalues --    2.88660   2.89362   2.89841   2.90028   2.90149
 Alpha virt. eigenvalues --    2.90674   2.91553   2.91617   2.92425   2.92794
 Alpha virt. eigenvalues --    2.93145   2.93864   2.94342   2.94916   2.95044
 Alpha virt. eigenvalues --    2.95528   2.95975   2.96216   2.96715   2.98213
 Alpha virt. eigenvalues --    2.98479   2.98928   2.99054   2.99695   3.00190
 Alpha virt. eigenvalues --    3.00648   3.00833   3.01233   3.01369   3.02172
 Alpha virt. eigenvalues --    3.02622   3.03069   3.03171   3.03736   3.03878
 Alpha virt. eigenvalues --    3.04220   3.04397   3.04766   3.05009   3.05349
 Alpha virt. eigenvalues --    3.06003   3.06305   3.06682   3.06976   3.07584
 Alpha virt. eigenvalues --    3.07700   3.08358   3.08658   3.09107   3.09478
 Alpha virt. eigenvalues --    3.09753   3.10082   3.10269   3.10368   3.10862
 Alpha virt. eigenvalues --    3.11210   3.11631   3.12057   3.12431   3.12712
 Alpha virt. eigenvalues --    3.12783   3.13185   3.13245   3.13378   3.13940
 Alpha virt. eigenvalues --    3.14080   3.14710   3.14968   3.15326   3.15701
 Alpha virt. eigenvalues --    3.16249   3.16926   3.17187   3.17528   3.17686
 Alpha virt. eigenvalues --    3.18459   3.18530   3.19217   3.19437   3.19834
 Alpha virt. eigenvalues --    3.20068   3.20280   3.20498   3.21136   3.21698
 Alpha virt. eigenvalues --    3.22266   3.22630   3.22915   3.23103   3.23388
 Alpha virt. eigenvalues --    3.24104   3.24770   3.25116   3.25560   3.25999
 Alpha virt. eigenvalues --    3.26284   3.27270   3.27617   3.27909   3.28091
 Alpha virt. eigenvalues --    3.28622   3.28821   3.29439   3.30320   3.30570
 Alpha virt. eigenvalues --    3.31142   3.31540   3.31982   3.32129   3.32518
 Alpha virt. eigenvalues --    3.32651   3.33225   3.33577   3.33720   3.34237
 Alpha virt. eigenvalues --    3.34847   3.35323   3.35535   3.35768   3.36344
 Alpha virt. eigenvalues --    3.36806   3.37333   3.37853   3.38204   3.38545
 Alpha virt. eigenvalues --    3.39077   3.39506   3.39601   3.40297   3.41016
 Alpha virt. eigenvalues --    3.41319   3.41770   3.42253   3.42474   3.42926
 Alpha virt. eigenvalues --    3.43423   3.43720   3.44547   3.44599   3.44765
 Alpha virt. eigenvalues --    3.45214   3.45477   3.45630   3.45850   3.45976
 Alpha virt. eigenvalues --    3.47067   3.47363   3.47581   3.47851   3.48460
 Alpha virt. eigenvalues --    3.48699   3.49231   3.49375   3.49813   3.50111
 Alpha virt. eigenvalues --    3.50356   3.50635   3.51523   3.51629   3.52131
 Alpha virt. eigenvalues --    3.52600   3.53154   3.53481   3.53825   3.53972
 Alpha virt. eigenvalues --    3.55014   3.55250   3.55830   3.56261   3.56873
 Alpha virt. eigenvalues --    3.57147   3.57441   3.57880   3.58424   3.58578
 Alpha virt. eigenvalues --    3.59024   3.59521   3.59918   3.60268   3.60472
 Alpha virt. eigenvalues --    3.61228   3.61659   3.62693   3.63164   3.63322
 Alpha virt. eigenvalues --    3.63695   3.64111   3.64747   3.65869   3.66362
 Alpha virt. eigenvalues --    3.66622   3.67020   3.67990   3.68461   3.68837
 Alpha virt. eigenvalues --    3.69663   3.70192   3.70707   3.70878   3.71678
 Alpha virt. eigenvalues --    3.72260   3.72410   3.73448   3.73875   3.74006
 Alpha virt. eigenvalues --    3.74438   3.74945   3.75451   3.76107   3.76460
 Alpha virt. eigenvalues --    3.76810   3.77107   3.78032   3.78336   3.78858
 Alpha virt. eigenvalues --    3.79096   3.79720   3.80085   3.80504   3.80967
 Alpha virt. eigenvalues --    3.81299   3.81891   3.82831   3.83392   3.83769
 Alpha virt. eigenvalues --    3.84038   3.84852   3.85923   3.86078   3.86667
 Alpha virt. eigenvalues --    3.87065   3.87327   3.87938   3.88096   3.88807
 Alpha virt. eigenvalues --    3.89027   3.89845   3.90458   3.90967   3.91423
 Alpha virt. eigenvalues --    3.91877   3.92580   3.93118   3.93837   3.94180
 Alpha virt. eigenvalues --    3.94694   3.95058   3.95556   3.95873   3.96557
 Alpha virt. eigenvalues --    3.96898   3.97230   3.97501   3.97777   3.98450
 Alpha virt. eigenvalues --    3.99072   4.00099   4.00228   4.00824   4.01462
 Alpha virt. eigenvalues --    4.01666   4.01978   4.02417   4.03140   4.03450
 Alpha virt. eigenvalues --    4.04295   4.04824   4.05338   4.05953   4.06154
 Alpha virt. eigenvalues --    4.06979   4.07061   4.07397   4.07668   4.07806
 Alpha virt. eigenvalues --    4.08781   4.09467   4.09917   4.10256   4.10412
 Alpha virt. eigenvalues --    4.10640   4.11294   4.11484   4.11795   4.12004
 Alpha virt. eigenvalues --    4.12743   4.12927   4.13534   4.13819   4.14146
 Alpha virt. eigenvalues --    4.14280   4.14776   4.15262   4.15671   4.16351
 Alpha virt. eigenvalues --    4.16800   4.17456   4.17638   4.17874   4.19008
 Alpha virt. eigenvalues --    4.19216   4.19630   4.19999   4.20526   4.20776
 Alpha virt. eigenvalues --    4.21159   4.21416   4.21841   4.21895   4.22456
 Alpha virt. eigenvalues --    4.23209   4.23662   4.24233   4.24559   4.24689
 Alpha virt. eigenvalues --    4.24864   4.25223   4.26035   4.26693   4.27212
 Alpha virt. eigenvalues --    4.27496   4.27939   4.28136   4.28463   4.29315
 Alpha virt. eigenvalues --    4.29446   4.30029   4.30488   4.30770   4.31372
 Alpha virt. eigenvalues --    4.31491   4.31825   4.32000   4.32573   4.32845
 Alpha virt. eigenvalues --    4.32877   4.33146   4.33643   4.33836   4.34155
 Alpha virt. eigenvalues --    4.34884   4.35448   4.35718   4.36297   4.36902
 Alpha virt. eigenvalues --    4.37300   4.37836   4.38208   4.38556   4.38915
 Alpha virt. eigenvalues --    4.39136   4.40081   4.40465   4.41776   4.41945
 Alpha virt. eigenvalues --    4.42325   4.43005   4.43853   4.44358   4.44793
 Alpha virt. eigenvalues --    4.45402   4.46241   4.46830   4.47197   4.48105
 Alpha virt. eigenvalues --    4.48464   4.49278   4.49965   4.50964   4.51587
 Alpha virt. eigenvalues --    4.52208   4.52766   4.54317   4.54863   4.55250
 Alpha virt. eigenvalues --    4.55898   4.56566   4.57408   4.57619   4.58425
 Alpha virt. eigenvalues --    4.59247   4.60506   4.61674   4.62546   4.62793
 Alpha virt. eigenvalues --    4.64396   4.65977   4.67374   4.68291   4.70185
 Alpha virt. eigenvalues --    4.70899   4.71464   4.72313   4.72801   4.73570
 Alpha virt. eigenvalues --    4.74225   4.74707   4.75528   4.76545   4.77714
 Alpha virt. eigenvalues --    4.78226   4.78782   4.79911   4.80365   4.80781
 Alpha virt. eigenvalues --    4.81865   4.82300   4.83012   4.83236   4.83755
 Alpha virt. eigenvalues --    4.84074   4.84653   4.84750   4.85378   4.85712
 Alpha virt. eigenvalues --    4.86518   4.86896   4.87629   4.87976   4.88671
 Alpha virt. eigenvalues --    4.88926   4.89351   4.89831   4.90423   4.90995
 Alpha virt. eigenvalues --    4.91323   4.91551   4.91940   4.92494   4.93731
 Alpha virt. eigenvalues --    4.94172   4.94424   4.95765   4.96102   4.96529
 Alpha virt. eigenvalues --    4.96740   4.97294   4.97828   4.98619   5.00027
 Alpha virt. eigenvalues --    5.01405   5.02686   5.03332   5.04469   5.05682
 Alpha virt. eigenvalues --    5.06108   5.07766   5.08598   5.08723   5.08916
 Alpha virt. eigenvalues --    5.09398   5.09887   5.10664   5.11024   5.11727
 Alpha virt. eigenvalues --    5.13679   5.14377   5.15431   5.15818   5.16049
 Alpha virt. eigenvalues --    5.16335   5.17160   5.17722   5.18550   5.19286
 Alpha virt. eigenvalues --    5.20409   5.20563   5.20761   5.20919   5.21922
 Alpha virt. eigenvalues --    5.22754   5.23406   5.24314   5.24707   5.25358
 Alpha virt. eigenvalues --    5.25832   5.26594   5.27250   5.27331   5.28556
 Alpha virt. eigenvalues --    5.28800   5.29141   5.29730   5.30718   5.33237
 Alpha virt. eigenvalues --    5.33522   5.34161   5.34584   5.35145   5.35441
 Alpha virt. eigenvalues --    5.35772   5.36393   5.36996   5.37500   5.37912
 Alpha virt. eigenvalues --    5.38595   5.38724   5.39107   5.39611   5.40578
 Alpha virt. eigenvalues --    5.40724   5.41411   5.41735   5.42343   5.42825
 Alpha virt. eigenvalues --    5.43190   5.43562   5.44622   5.45345   5.46305
 Alpha virt. eigenvalues --    5.47697   5.47913   5.48837   5.49589   5.49809
 Alpha virt. eigenvalues --    5.50810   5.51058   5.52067   5.52533   5.52582
 Alpha virt. eigenvalues --    5.54208   5.55112   5.55956   5.56628   5.56671
 Alpha virt. eigenvalues --    5.57274   5.57610   5.58292   5.59293   5.59744
 Alpha virt. eigenvalues --    5.60843   5.61484   5.62576   5.63720   5.66882
 Alpha virt. eigenvalues --    5.69001   5.71928   5.76082   5.77960   5.82507
 Alpha virt. eigenvalues --    5.86007   5.89174   5.91703   5.95906   5.99008
 Alpha virt. eigenvalues --    5.99217   6.00356   6.00532   6.01866   6.02444
 Alpha virt. eigenvalues --    6.02774   6.03400   6.03752   6.04728   6.04963
 Alpha virt. eigenvalues --    6.05638   6.06234   6.06915   6.08855   6.09667
 Alpha virt. eigenvalues --    6.10250   6.11096   6.12526   6.13935   6.17202
 Alpha virt. eigenvalues --    6.18793   6.19722   6.20134   6.24166   6.24836
 Alpha virt. eigenvalues --    6.28886   6.30772   6.33013   6.34984   6.38407
 Alpha virt. eigenvalues --    6.39071   6.43762   6.48505   6.52749   6.63057
 Alpha virt. eigenvalues --    6.72940   6.77123   6.79962   6.82789   6.86374
 Alpha virt. eigenvalues --    6.88658   6.92720   7.07847   7.12251   7.36064
 Alpha virt. eigenvalues --    7.84449   8.18473   9.72732   9.89351  10.01664
 Alpha virt. eigenvalues --   10.61735  12.27685  12.29301  12.81782  12.90610
 Alpha virt. eigenvalues --   12.99101  13.07212  13.21005  13.31251  13.38069
 Alpha virt. eigenvalues --   13.51000  13.58043  13.63005  13.73461  13.79652
 Alpha virt. eigenvalues --   13.81360  13.84748  13.88184  13.91790  15.03045
 Alpha virt. eigenvalues --   35.02191  35.68441  35.77343  46.36729
          Condensed to atoms (all electrons):
 Mulliken charges:
               1
     1  N   -0.216658
     2  C    0.078274
     3  C    0.018107
     4  C   -0.162851
     5  C   -0.135282
     6  C   -0.132026
     7  C   -0.055831
     8  H    0.160450
     9  H    0.163273
    10  H    0.161843
    11  C   -0.232314
    12  N   -0.255355
    13  H    0.125339
    14  H    0.152666
    15  H    0.157733
    16  P    0.047376
    17  H    0.144864
    18  Ru   0.099032
    19  C   -0.121338
    20  C    0.006808
    21  C   -0.124602
    22  C    0.015055
    23  C   -0.358827
    24  C   -0.351135
    25  C   -0.337309
    26  C   -0.358204
    27  C   -0.337110
    28  C   -0.343631
    29  H    0.134652
    30  C   -0.321017
    31  H    0.140272
    32  H    0.146156
    33  C   -0.343694
    34  H    0.117099
    35  C   -0.213913
    36  H    0.134231
    37  H    0.113212
    38  H    0.119015
    39  H    0.117866
    40  H    0.110531
    41  H    0.111271
    42  H    0.107611
    43  H    0.115894
    44  H    0.147256
    45  H    0.104563
    46  H    0.122710
    47  H    0.120115
    48  H    0.106055
    49  H    0.121344
    50  H    0.113084
    51  H    0.116494
    52  H    0.104627
    53  H    0.114031
    54  H    0.118268
    55  H    0.118782
    56  H    0.104395
    57  H    0.109378
    58  H    0.131518
    59  H    0.115992
    60  O   -0.345153
    61  O   -0.557155
    62  H    0.278352
    63  H    0.357811
 Sum of Mulliken charges =  -0.00000
 Mulliken charges with hydrogens summed into heavy atoms:
               1
     1  N   -0.216658
     2  C    0.078274
     3  C    0.018107
     4  C   -0.002401
     5  C    0.027991
     6  C    0.029817
     7  C    0.222174
    11  C    0.070282
    12  N   -0.255355
    16  P    0.047376
    18  Ru   0.099032
    19  C    0.153587
    20  C    0.006808
    21  C    0.138654
    22  C    0.015055
    23  C    0.011933
    24  C   -0.003746
    25  C    0.003175
    26  C   -0.001317
    27  C   -0.001958
    28  C   -0.002186
    30  C    0.018650
    33  C    0.022764
    35  C   -0.213913
    60  O   -0.345153
    61  O    0.079008
 Electronic spatial extent (au):  <R**2>=           9587.5932
 Charge=             -0.0000 electrons
 Dipole moment (field-independent basis, Debye):
    X=             -3.8286    Y=             12.5100    Z=              3.5394  Tot=             13.5531
 Quadrupole moment (field-independent basis, Debye-Ang):
   XX=           -148.7368   YY=           -181.3439   ZZ=           -197.0580
   XY=             -0.6602   XZ=             -7.6449   YZ=             -4.0626
 Traceless Quadrupole moment (field-independent basis, Debye-Ang):
   XX=             26.9761   YY=             -5.6310   ZZ=            -21.3451
   XY=             -0.6602   XZ=             -7.6449   YZ=             -4.0626
 Octapole moment (field-independent basis, Debye-Ang**2):
  XXX=            -95.5845  YYY=            143.5400  ZZZ=             57.6740  XYY=            -51.9072
  XXY=              4.1776  XXZ=             13.3801  XZZ=             -5.1553  YZZ=             -4.9834
  YYZ=            -17.5787  XYZ=              2.7566
 Hexadecapole moment (field-independent basis, Debye-Ang**3):
 XXXX=          -6717.5471 YYYY=          -3732.3085 ZZZZ=          -2356.0853 XXXY=            -36.7299
 XXXZ=            -55.1532 YYYX=            -45.1832 YYYZ=            -80.1569 ZZZX=            -33.2321
 ZZZY=            -22.9931 XXYY=          -1691.7063 XXZZ=          -1493.0882 YYZZ=          -1017.1450
 XXYZ=             16.2834 YYXZ=            -33.9795 ZZXY=             17.9199
 N-N= 3.216826227858D+03 E-N=-9.870773722565D+03  KE= 1.410491306242D+03
 1\1\GINC-NODE292\SP\RPBE1PBE\GenECP\C20H37N2O2P1Ru1\JS1212\05-May-2020
 \0\\# genecp pbe1pbe EmpiricalDispersion=GD3BJ scrf=(SMD,solvent=water
 ) geom=allcheck\\Title Card Required\\0,1\N,0,0.7199715759,1.380651581
 4,0.205519207\C,0,1.9349196878,1.9062041894,-0.0503911834\C,0,-0.22925
 56949,2.1179756158,0.8290113548\C,0,2.2717991019,3.193312119,0.3470909
 163\C,0,1.307851909,3.9656569108,0.9934381396\C,0,0.0452765914,3.42628
 74113,1.2248924949\C,0,2.8220746302,1.0270796734,-0.8805132434\H,0,3.2
 678359884,3.5868454176,0.1404554528\H,0,1.539260697,4.9828625005,1.313
 9690785\H,0,-0.7290050076,4.0092022041,1.724975762\C,0,-1.5388203509,1
 .4381367554,1.0821189316\N,0,2.6451005019,-0.4066611636,-0.5807522466\
 H,0,3.8772871662,1.3415470364,-0.7952728035\H,0,2.5290377753,1.1684692
 429,-1.9337887475\H,0,-1.5062470219,1.006882173,2.0970850233\P,0,-1.73
 06056901,-0.0575599068,-0.0416135257\H,0,-2.3736839726,2.1552966755,1.
 0517355328\Ru,0,0.4042777818,-0.6009506754,-0.3627628419\C,0,3.2784977
 704,-0.7573198203,0.7147617236\C,0,-2.9644545025,-1.1309828526,0.93100
 94116\C,0,3.2102712323,-1.1692644931,-1.719763018\C,0,-2.5811830571,0.
 6621980207,-1.5957080103\C,0,-2.1547147064,-1.8734106474,1.9981874722\
 C,0,-3.5887060088,-2.1698787525,-0.0030257878\C,0,-4.0607342772,-0.322
 460235,1.6286286688\C,0,-1.7193156755,1.8502592653,-2.0361506323\C,0,-
 4.0176733346,1.1410066425,-1.4087294764\C,0,-2.5020383839,-0.396069001
 3,-2.6998567105\H,0,2.7913860818,-0.144074652,1.4841582923\C,0,4.79161
 06555,-0.6104557692,0.8006085144\H,0,2.9759580804,-1.7875554335,0.9415
 660993\H,0,2.5718692463,-0.929894251,-2.583647846\C,0,3.2595710119,-2.
 6684793551,-1.5246777713\H,0,4.2273164861,-0.7897301743,-1.9454892824\
 C,0,0.0195329478,-2.3463413681,-0.7260862271\H,0,2.2685716828,-3.07074
 66323,-1.2786246649\H,0,3.9670469248,-2.9700616473,-0.7386201874\H,0,3
 .5937784138,-3.1351250973,-2.463078309\H,0,5.1139973515,-0.9142982141,
 1.807627227\H,0,5.1324329687,0.4256820426,0.6537943431\H,0,5.323033711
 1,-1.2489790137,0.0793880906\H,0,-2.8468016154,-2.4805705246,2.6065852
 412\H,0,-1.6114085284,-1.1959464906,2.6725063049\H,0,-1.4130494732,-2.
 5422698732,1.5420317757\H,0,-4.1613094829,-2.8929660283,0.6019331961\H
 ,0,-2.820767258,-2.7336107474,-0.5526594868\H,0,-4.2860618422,-1.72422
 0236,-0.7264838168\H,0,-4.7336239281,-1.0184103366,2.1576827037\H,0,-4
 .6752653893,0.2648179718,0.9351538822\H,0,-3.6475871525,0.3591729862,2
 .386965298\H,0,-4.7115962639,0.3168255901,-1.193993454\H,0,-4.36410044
 21,1.6244245633,-2.3385763425\H,0,-4.1068988647,1.8867658028,-0.603095
 6654\H,0,-3.1171148792,-1.2799069358,-2.4857418769\H,0,-1.4602127907,-
 0.7293909208,-2.8247711044\H,0,-2.8560397637,0.0384899303,-3.650551399
 6\H,0,-2.0853636832,2.2195972946,-3.0089158727\H,0,-0.6677012381,1.544
 810913,-2.1525741664\H,0,-1.7629024066,2.6915863488,-1.327086764\O,0,-
 0.2981728819,-3.4588000148,-0.9209880443\O,0,0.68095994,-0.4414503678,
 2.8685815994\H,0,0.9166564686,0.4868097212,2.7508401928\H,0,0.53135118
 76,-0.7313649675,1.9246985789\\Version=ES64L-G16RevA.03\State=1-A\HF=-
 1479.8001242\RMSD=3.238e-09\Dipole=1.3265505,5.1549778,-0.3143593\Quad
 rupole=19.912825,-5.8175083,-14.0953167,2.5917272,-5.6067297,4.9803421
 \PG=C01 [X(C20H37N2O2P1Ru1)]\\@


 IT'S WHAT YOU LEARN AFTER YOU KNOW IT ALL
 THAT COUNTS.
 Job cpu time:       0 days 14 hours 24 minutes 28.1 seconds.
 Elapsed time:       0 days  0 hours 43 minutes 23.0 seconds.
 File lengths (MBytes):  RWF=   1163 Int=      0 D2E=      0 Chk=    116 Scr=      1
 Normal termination of Gaussian 16 at Tue May  5 02:46:01 2020.
