 Entering Gaussian System, Link 0=g16
 Initial command:
 /cluster/chemistry/gaussian/g16/l1.exe "/scratch/js1212.738034/scratch/Gau-19277.inp" -scrdir="/scratch/js1212.738034/scratch/"
 Entering Link 1 = /cluster/chemistry/gaussian/g16/l1.exe PID=     19279.
  
 Copyright (c) 1988,1990,1992,1993,1995,1998,2003,2009,2016,
            Gaussian, Inc.  All Rights Reserved.
  
 This is part of the Gaussian(R) 16 program.  It is based on
 the Gaussian(R) 09 system (copyright 2009, Gaussian, Inc.),
 the Gaussian(R) 03 system (copyright 2003, Gaussian, Inc.),
 the Gaussian(R) 98 system (copyright 1998, Gaussian, Inc.),
 the Gaussian(R) 94 system (copyright 1995, Gaussian, Inc.),
 the Gaussian 92(TM) system (copyright 1992, Gaussian, Inc.),
 the Gaussian 90(TM) system (copyright 1990, Gaussian, Inc.),
 the Gaussian 88(TM) system (copyright 1988, Gaussian, Inc.),
 the Gaussian 86(TM) system (copyright 1986, Carnegie Mellon
 University), and the Gaussian 82(TM) system (copyright 1983,
 Carnegie Mellon University). Gaussian is a federally registered
 trademark of Gaussian, Inc.
  
 This software contains proprietary and confidential information,
 including trade secrets, belonging to Gaussian, Inc.
  
 This software is provided under written license and may be
 used, copied, transmitted, or stored only in accord with that
 written license.
  
 The following legend is applicable only to US Government
 contracts under FAR:
  
                    RESTRICTED RIGHTS LEGEND
  
 Use, reproduction and disclosure by the US Government is
 subject to restrictions as set forth in subparagraphs (a)
 and (c) of the Commercial Computer Software - Restricted
 Rights clause in FAR 52.227-19.
  
 Gaussian, Inc.
 340 Quinnipiac St., Bldg. 40, Wallingford CT 06492
  
  
 ---------------------------------------------------------------
 Warning -- This program may not be used in any manner that
 competes with the business of Gaussian, Inc. or will provide
 assistance to any competitor of Gaussian, Inc.  The licensee
 of this program is prohibited from giving any competitor of
 Gaussian, Inc. access to this program.  By using this program,
 the user acknowledges that Gaussian, Inc. is engaged in the
 business of creating and licensing software in the field of
 computational chemistry and represents and warrants to the
 licensee that it is not a competitor of Gaussian, Inc. and that
 it will not use this program in any manner prohibited above.
 ---------------------------------------------------------------
  

 Cite this work as:
 Gaussian 16, Revision A.03,
 M. J. Frisch, G. W. Trucks, H. B. Schlegel, G. E. Scuseria, 
 M. A. Robb, J. R. Cheeseman, G. Scalmani, V. Barone, 
 G. A. Petersson, H. Nakatsuji, X. Li, M. Caricato, A. V. Marenich, 
 J. Bloino, B. G. Janesko, R. Gomperts, B. Mennucci, H. P. Hratchian, 
 J. V. Ortiz, A. F. Izmaylov, J. L. Sonnenberg, D. Williams-Young, 
 F. Ding, F. Lipparini, F. Egidi, J. Goings, B. Peng, A. Petrone, 
 T. Henderson, D. Ranasinghe, V. G. Zakrzewski, J. Gao, N. Rega, 
 G. Zheng, W. Liang, M. Hada, M. Ehara, K. Toyota, R. Fukuda, 
 J. Hasegawa, M. Ishida, T. Nakajima, Y. Honda, O. Kitao, H. Nakai, 
 T. Vreven, K. Throssell, J. A. Montgomery, Jr., J. E. Peralta, 
 F. Ogliaro, M. J. Bearpark, J. J. Heyd, E. N. Brothers, K. N. Kudin, 
 V. N. Staroverov, T. A. Keith, R. Kobayashi, J. Normand, 
 K. Raghavachari, A. P. Rendell, J. C. Burant, S. S. Iyengar, 
 J. Tomasi, M. Cossi, J. M. Millam, M. Klene, C. Adamo, R. Cammi, 
 J. W. Ochterski, R. L. Martin, K. Morokuma, O. Farkas, 
 J. B. Foresman, and D. J. Fox, Gaussian, Inc., Wallingford CT, 2016.
 
 ******************************************
 Gaussian 16:  ES64L-G16RevA.03 25-Dec-2016
                 4-May-2020 
 ******************************************
 %rwf=/scratch/js1212.738034/0-Full-Planar-H2O-GPOF.rwf
 %nosave
 %nprocshared=20
 Will use up to   20 processors via shared memory.
 %mem=3000MB
 %chk=/scratch/js1212.738034/0-Full-Planar-H2O-GPOF.chk
 ---------------------------------------------------
 # opt freq genecp pbe1pbe EmpiricalDispersion=GD3BJ
 ---------------------------------------------------
 1/18=20,19=15,26=3,38=1/1,3;
 2/9=110,12=2,17=6,18=5,40=1/2;
 3/5=7,11=2,16=1,17=8,25=1,30=1,71=1,74=-13,124=41/1,2,3;
 4//1;
 5/5=2,38=5/2;
 6/7=2,8=2,9=2,10=2,28=1/1;
 7//1,2,3,16;
 1/18=20,19=15,26=3/3(2);
 2/9=110/2;
 99//99;
 2/9=110/2;
 3/5=7,6=1,11=2,16=1,17=8,25=1,30=1,71=1,74=-13,82=7,124=41/1,2,3;
 4/5=5,16=3,69=1/1;
 5/5=2,38=5/2;
 7//1,2,3,16;
 1/18=20,19=15,26=3/3(-5);
 2/9=110/2;
 6/7=2,8=2,9=2,10=2,19=2,28=1/1;
 99/9=1/99;
 -------------------
 Title Card Required
 -------------------
 Symbolic Z-matrix:
 Charge =  0 Multiplicity = 1
 N                     0.71566   1.37102   0.24967 
 C                     1.88601   1.90688  -0.14944 
 C                    -0.22203   2.13284   0.85849 
 C                     2.19685   3.23563   0.11033 
 C                     1.25695   4.02958   0.76442 
 C                     0.03258   3.47557   1.12784 
 C                     2.73322   0.98067  -0.96914 
 H                     3.15802   3.64155  -0.20754 
 H                     1.4732    5.0771    0.98044 
 H                    -0.7306    4.07916   1.62065 
 C                    -1.51831   1.44743   1.18218 
 N                     2.668    -0.41382  -0.49369 
 H                     3.77113   1.35162  -1.03319 
 H                     2.30857   0.97872  -1.98663 
 H                    -1.44297   0.99243   2.18545 
 P                    -1.75656  -0.02385   0.03128 
 H                    -2.35119   2.16642   1.20696 
 Ru                    0.41346  -0.61138  -0.14255 
 C                     3.4269   -0.55444   0.77262 
 C                    -3.03865  -1.11267   0.9184 
 C                     3.17947  -1.30585  -1.5597 
 C                    -2.54199   0.74825  -1.53001 
 C                    -2.28511  -1.92416   1.97289 
 C                    -3.61065  -2.1105   -0.09137 
 C                    -4.15196  -0.32493   1.61073 
 C                    -1.68563   1.95376  -1.93209 
 C                    -3.97745   1.23127  -1.3277 
 C                    -2.47899  -0.26757  -2.67357 
 H                     2.99417   0.17132   1.47773 
 C                     4.93463  -0.36535   0.69258 
 H                     3.19723  -1.54836   1.17591 
 H                     2.49649  -1.16511  -2.41 
 C                     3.19508  -2.76566  -1.16012 
 H                     4.18443  -0.96125  -1.87714 
 C                     0.10464  -2.37549  -0.77064 
 H                     2.18267  -3.05345  -0.82169 
 H                     3.93873  -2.98216  -0.37773 
 H                     3.46261  -3.37173  -2.03913 
 H                     5.3564   -0.47464   1.70297 
 H                     5.22566   0.63128   0.32769 
 H                     5.41672  -1.11829   0.0522 
 H                    -3.0047   -2.58654   2.48267 
 H                    -1.82336  -1.2901    2.74351 
 H                    -1.50496  -2.54116   1.50536 
 H                    -4.20342  -2.86484   0.45241 
 H                    -2.79842  -2.63566  -0.61747 
 H                    -4.27589  -1.63992  -0.82798 
 H                    -4.82587  -1.03594   2.11799 
 H                    -4.7617    0.26958   0.92036 
 H                    -3.75465   0.34758   2.38635 
 H                    -4.68328   0.40641  -1.16265 
 H                    -4.30489   1.76218  -2.23745 
 H                    -4.06683   1.93952  -0.48927 
 H                    -3.11348  -1.14547  -2.49985 
 H                    -1.44317  -0.60744  -2.81777 
 H                    -2.82265   0.21757  -3.6027 
 H                    -2.05123   2.3347   -2.90001 
 H                    -0.63235   1.66355  -2.05282 
 H                    -1.754     2.77998  -1.20884 
 O                    -0.00194  -3.4773   -1.11497 
 O                     0.92719  -1.03652   1.915 
 H                     0.84371  -0.29114   2.5301 
 H                     0.63462  -1.85123   2.35268 
 

 GradGradGradGradGradGradGradGradGradGradGradGradGradGradGradGradGradGrad
 Berny optimization.
 Initialization pass.
                           ----------------------------
                           !    Initial Parameters    !
                           ! (Angstroms and Degrees)  !
 --------------------------                            --------------------------
 ! Name  Definition              Value          Derivative Info.                !
 --------------------------------------------------------------------------------
 ! R1    R(1,2)                  1.3476         estimate D2E/DX2                !
 ! R2    R(1,3)                  1.3529         estimate D2E/DX2                !
 ! R3    R(1,18)                 2.0433         estimate D2E/DX2                !
 ! R4    R(2,4)                  1.3891         estimate D2E/DX2                !
 ! R5    R(2,7)                  1.4992         estimate D2E/DX2                !
 ! R6    R(3,6)                  1.3929         estimate D2E/DX2                !
 ! R7    R(3,11)                 1.5016         estimate D2E/DX2                !
 ! R8    R(4,5)                  1.3934         estimate D2E/DX2                !
 ! R9    R(4,8)                  1.0907         estimate D2E/DX2                !
 ! R10   R(5,6)                  1.3922         estimate D2E/DX2                !
 ! R11   R(5,9)                  1.0912         estimate D2E/DX2                !
 ! R12   R(6,10)                 1.0907         estimate D2E/DX2                !
 ! R13   R(7,12)                 1.4748         estimate D2E/DX2                !
 ! R14   R(7,13)                 1.1041         estimate D2E/DX2                !
 ! R15   R(7,14)                 1.1026         estimate D2E/DX2                !
 ! R16   R(11,15)                1.1042         estimate D2E/DX2                !
 ! R17   R(11,16)                1.8831         estimate D2E/DX2                !
 ! R18   R(11,17)                1.1006         estimate D2E/DX2                !
 ! R19   R(12,19)                1.483          estimate D2E/DX2                !
 ! R20   R(12,21)                1.4811         estimate D2E/DX2                !
 ! R21   R(16,18)                2.2549         estimate D2E/DX2                !
 ! R22   R(16,20)                1.9016         estimate D2E/DX2                !
 ! R23   R(16,22)                1.9107         estimate D2E/DX2                !
 ! R24   R(18,35)                1.8979         estimate D2E/DX2                !
 ! R25   R(18,61)                2.1629         estimate D2E/DX2                !
 ! R26   R(19,29)                1.1005         estimate D2E/DX2                !
 ! R27   R(19,30)                1.5216         estimate D2E/DX2                !
 ! R28   R(19,31)                1.0969         estimate D2E/DX2                !
 ! R29   R(20,23)                1.5291         estimate D2E/DX2                !
 ! R30   R(20,24)                1.5305         estimate D2E/DX2                !
 ! R31   R(20,25)                1.5295         estimate D2E/DX2                !
 ! R32   R(21,32)                1.0997         estimate D2E/DX2                !
 ! R33   R(21,33)                1.5136         estimate D2E/DX2                !
 ! R34   R(21,34)                1.1088         estimate D2E/DX2                !
 ! R35   R(22,26)                1.5324         estimate D2E/DX2                !
 ! R36   R(22,27)                1.528          estimate D2E/DX2                !
 ! R37   R(22,28)                1.5309         estimate D2E/DX2                !
 ! R38   R(23,42)                1.1029         estimate D2E/DX2                !
 ! R39   R(23,43)                1.0996         estimate D2E/DX2                !
 ! R40   R(23,44)                1.099          estimate D2E/DX2                !
 ! R41   R(24,45)                1.1028         estimate D2E/DX2                !
 ! R42   R(24,46)                1.101          estimate D2E/DX2                !
 ! R43   R(24,47)                1.0984         estimate D2E/DX2                !
 ! R44   R(25,48)                1.1032         estimate D2E/DX2                !
 ! R45   R(25,49)                1.0963         estimate D2E/DX2                !
 ! R46   R(25,50)                1.1008         estimate D2E/DX2                !
 ! R47   R(26,57)                1.1026         estimate D2E/DX2                !
 ! R48   R(26,58)                1.0992         estimate D2E/DX2                !
 ! R49   R(26,59)                1.1002         estimate D2E/DX2                !
 ! R50   R(27,51)                1.0981         estimate D2E/DX2                !
 ! R51   R(27,52)                1.1031         estimate D2E/DX2                !
 ! R52   R(27,53)                1.1012         estimate D2E/DX2                !
 ! R53   R(28,54)                1.097          estimate D2E/DX2                !
 ! R54   R(28,55)                1.0996         estimate D2E/DX2                !
 ! R55   R(28,56)                1.1031         estimate D2E/DX2                !
 ! R56   R(30,39)                1.1003         estimate D2E/DX2                !
 ! R57   R(30,40)                1.1005         estimate D2E/DX2                !
 ! R58   R(30,41)                1.0997         estimate D2E/DX2                !
 ! R59   R(33,36)                1.1056         estimate D2E/DX2                !
 ! R60   R(33,37)                1.1009         estimate D2E/DX2                !
 ! R61   R(33,38)                1.1007         estimate D2E/DX2                !
 ! R62   R(35,60)                1.1593         estimate D2E/DX2                !
 ! R63   R(61,62)                0.97           estimate D2E/DX2                !
 ! R64   R(61,63)                0.97           estimate D2E/DX2                !
 ! A1    A(2,1,3)              120.7496         estimate D2E/DX2                !
 ! A2    A(2,1,18)             117.2174         estimate D2E/DX2                !
 ! A3    A(3,1,18)             122.0189         estimate D2E/DX2                !
 ! A4    A(1,2,4)              121.2846         estimate D2E/DX2                !
 ! A5    A(1,2,7)              114.0189         estimate D2E/DX2                !
 ! A6    A(4,2,7)              124.524          estimate D2E/DX2                !
 ! A7    A(1,3,6)              120.2078         estimate D2E/DX2                !
 ! A8    A(1,3,11)             115.9954         estimate D2E/DX2                !
 ! A9    A(6,3,11)             123.7861         estimate D2E/DX2                !
 ! A10   A(2,4,5)              118.8074         estimate D2E/DX2                !
 ! A11   A(2,4,8)              119.9123         estimate D2E/DX2                !
 ! A12   A(5,4,8)              121.2764         estimate D2E/DX2                !
 ! A13   A(4,5,6)              119.2768         estimate D2E/DX2                !
 ! A14   A(4,5,9)              120.413          estimate D2E/DX2                !
 ! A15   A(6,5,9)              120.3071         estimate D2E/DX2                !
 ! A16   A(3,6,5)              119.5962         estimate D2E/DX2                !
 ! A17   A(3,6,10)             119.5325         estimate D2E/DX2                !
 ! A18   A(5,6,10)             120.8713         estimate D2E/DX2                !
 ! A19   A(2,7,12)             112.5147         estimate D2E/DX2                !
 ! A20   A(2,7,13)             110.8178         estimate D2E/DX2                !
 ! A21   A(2,7,14)             106.7395         estimate D2E/DX2                !
 ! A22   A(12,7,13)            112.2083         estimate D2E/DX2                !
 ! A23   A(12,7,14)            106.1895         estimate D2E/DX2                !
 ! A24   A(13,7,14)            108.0069         estimate D2E/DX2                !
 ! A25   A(3,11,15)            108.968          estimate D2E/DX2                !
 ! A26   A(3,11,16)            109.5178         estimate D2E/DX2                !
 ! A27   A(3,11,17)            111.0968         estimate D2E/DX2                !
 ! A28   A(15,11,16)           104.0044         estimate D2E/DX2                !
 ! A29   A(15,11,17)           107.4801         estimate D2E/DX2                !
 ! A30   A(16,11,17)           115.3685         estimate D2E/DX2                !
 ! A31   A(7,12,19)            110.0182         estimate D2E/DX2                !
 ! A32   A(7,12,21)            108.7949         estimate D2E/DX2                !
 ! A33   A(19,12,21)           112.3802         estimate D2E/DX2                !
 ! A34   A(11,16,18)            97.4081         estimate D2E/DX2                !
 ! A35   A(11,16,20)           104.332          estimate D2E/DX2                !
 ! A36   A(11,16,22)           103.633          estimate D2E/DX2                !
 ! A37   A(18,16,20)           122.3851         estimate D2E/DX2                !
 ! A38   A(18,16,22)           115.9704         estimate D2E/DX2                !
 ! A39   A(20,16,22)           109.5983         estimate D2E/DX2                !
 ! A40   A(1,18,16)             82.8042         estimate D2E/DX2                !
 ! A41   A(1,18,61)             88.451          estimate D2E/DX2                !
 ! A42   A(16,18,35)            96.3795         estimate D2E/DX2                !
 ! A43   A(16,18,61)           101.915          estimate D2E/DX2                !
 ! A44   A(35,18,61)            99.8323         estimate D2E/DX2                !
 ! A45   A(12,19,29)           106.4597         estimate D2E/DX2                !
 ! A46   A(12,19,30)           116.7667         estimate D2E/DX2                !
 ! A47   A(12,19,31)           107.0201         estimate D2E/DX2                !
 ! A48   A(29,19,30)           109.9596         estimate D2E/DX2                !
 ! A49   A(29,19,31)           106.2394         estimate D2E/DX2                !
 ! A50   A(30,19,31)           109.84           estimate D2E/DX2                !
 ! A51   A(16,20,23)           107.0563         estimate D2E/DX2                !
 ! A52   A(16,20,24)           108.5106         estimate D2E/DX2                !
 ! A53   A(16,20,25)           114.0179         estimate D2E/DX2                !
 ! A54   A(23,20,24)           107.0467         estimate D2E/DX2                !
 ! A55   A(23,20,25)           108.655          estimate D2E/DX2                !
 ! A56   A(24,20,25)           111.2469         estimate D2E/DX2                !
 ! A57   A(12,21,32)           105.3649         estimate D2E/DX2                !
 ! A58   A(12,21,33)           113.2301         estimate D2E/DX2                !
 ! A59   A(12,21,34)           109.3818         estimate D2E/DX2                !
 ! A60   A(32,21,33)           109.5099         estimate D2E/DX2                !
 ! A61   A(32,21,34)           107.5636         estimate D2E/DX2                !
 ! A62   A(33,21,34)           111.4674         estimate D2E/DX2                !
 ! A63   A(16,22,26)           107.6125         estimate D2E/DX2                !
 ! A64   A(16,22,27)           113.9368         estimate D2E/DX2                !
 ! A65   A(16,22,28)           108.9864         estimate D2E/DX2                !
 ! A66   A(26,22,27)           108.1225         estimate D2E/DX2                !
 ! A67   A(26,22,28)           107.6382         estimate D2E/DX2                !
 ! A68   A(27,22,28)           110.3236         estimate D2E/DX2                !
 ! A69   A(20,23,42)           108.4173         estimate D2E/DX2                !
 ! A70   A(20,23,43)           112.5947         estimate D2E/DX2                !
 ! A71   A(20,23,44)           110.7549         estimate D2E/DX2                !
 ! A72   A(42,23,43)           107.239          estimate D2E/DX2                !
 ! A73   A(42,23,44)           108.8199         estimate D2E/DX2                !
 ! A74   A(43,23,44)           108.8906         estimate D2E/DX2                !
 ! A75   A(20,24,45)           108.7552         estimate D2E/DX2                !
 ! A76   A(20,24,46)           110.5185         estimate D2E/DX2                !
 ! A77   A(20,24,47)           112.9212         estimate D2E/DX2                !
 ! A78   A(45,24,46)           107.8112         estimate D2E/DX2                !
 ! A79   A(45,24,47)           107.3484         estimate D2E/DX2                !
 ! A80   A(46,24,47)           109.3096         estimate D2E/DX2                !
 ! A81   A(20,25,48)           108.7145         estimate D2E/DX2                !
 ! A82   A(20,25,49)           113.5218         estimate D2E/DX2                !
 ! A83   A(20,25,50)           111.7698         estimate D2E/DX2                !
 ! A84   A(48,25,49)           107.4164         estimate D2E/DX2                !
 ! A85   A(48,25,50)           106.8732         estimate D2E/DX2                !
 ! A86   A(49,25,50)           108.2496         estimate D2E/DX2                !
 ! A87   A(22,26,57)           108.4718         estimate D2E/DX2                !
 ! A88   A(22,26,58)           110.8924         estimate D2E/DX2                !
 ! A89   A(22,26,59)           112.5546         estimate D2E/DX2                !
 ! A90   A(57,26,58)           108.2125         estimate D2E/DX2                !
 ! A91   A(57,26,59)           107.2797         estimate D2E/DX2                !
 ! A92   A(58,26,59)           109.2707         estimate D2E/DX2                !
 ! A93   A(22,27,51)           112.7239         estimate D2E/DX2                !
 ! A94   A(22,27,52)           108.773          estimate D2E/DX2                !
 ! A95   A(22,27,53)           112.3573         estimate D2E/DX2                !
 ! A96   A(51,27,52)           107.1397         estimate D2E/DX2                !
 ! A97   A(51,27,53)           108.4527         estimate D2E/DX2                !
 ! A98   A(52,27,53)           107.1159         estimate D2E/DX2                !
 ! A99   A(22,28,54)           112.8873         estimate D2E/DX2                !
 ! A100  A(22,28,55)           109.9869         estimate D2E/DX2                !
 ! A101  A(22,28,56)           108.9382         estimate D2E/DX2                !
 ! A102  A(54,28,55)           108.556          estimate D2E/DX2                !
 ! A103  A(54,28,56)           107.7675         estimate D2E/DX2                !
 ! A104  A(55,28,56)           108.5991         estimate D2E/DX2                !
 ! A105  A(19,30,39)           108.6123         estimate D2E/DX2                !
 ! A106  A(19,30,40)           113.0796         estimate D2E/DX2                !
 ! A107  A(19,30,41)           112.3281         estimate D2E/DX2                !
 ! A108  A(39,30,40)           107.0404         estimate D2E/DX2                !
 ! A109  A(39,30,41)           107.3779         estimate D2E/DX2                !
 ! A110  A(40,30,41)           108.1215         estimate D2E/DX2                !
 ! A111  A(21,33,36)           108.8095         estimate D2E/DX2                !
 ! A112  A(21,33,37)           112.597          estimate D2E/DX2                !
 ! A113  A(21,33,38)           108.8287         estimate D2E/DX2                !
 ! A114  A(36,33,37)           110.4763         estimate D2E/DX2                !
 ! A115  A(36,33,38)           108.8865         estimate D2E/DX2                !
 ! A116  A(37,33,38)           107.1619         estimate D2E/DX2                !
 ! A117  A(18,61,62)           115.5786         estimate D2E/DX2                !
 ! A118  A(18,61,63)           121.5125         estimate D2E/DX2                !
 ! A119  A(62,61,63)           109.4706         estimate D2E/DX2                !
 ! A120  L(1,18,35,16,-1)      179.1837         estimate D2E/DX2                !
 ! A121  L(18,35,60,20,-1)     183.0942         estimate D2E/DX2                !
 ! A122  L(1,18,35,16,-2)      171.6329         estimate D2E/DX2                !
 ! A123  L(18,35,60,20,-2)     183.711          estimate D2E/DX2                !
 ! D1    D(3,1,2,4)              3.3455         estimate D2E/DX2                !
 ! D2    D(3,1,2,7)           -172.0868         estimate D2E/DX2                !
 ! D3    D(18,1,2,4)          -177.9954         estimate D2E/DX2                !
 ! D4    D(18,1,2,7)             6.5723         estimate D2E/DX2                !
 ! D5    D(2,1,3,6)             -2.4836         estimate D2E/DX2                !
 ! D6    D(2,1,3,11)           176.3693         estimate D2E/DX2                !
 ! D7    D(18,1,3,6)           178.9228         estimate D2E/DX2                !
 ! D8    D(18,1,3,11)           -2.2242         estimate D2E/DX2                !
 ! D9    D(2,1,18,16)         -157.0235         estimate D2E/DX2                !
 ! D10   D(2,1,18,61)          100.7609         estimate D2E/DX2                !
 ! D11   D(3,1,18,16)           21.6173         estimate D2E/DX2                !
 ! D12   D(3,1,18,61)          -80.5983         estimate D2E/DX2                !
 ! D13   D(1,2,4,5)             -1.7874         estimate D2E/DX2                !
 ! D14   D(1,2,4,8)            178.9249         estimate D2E/DX2                !
 ! D15   D(7,2,4,5)            173.1474         estimate D2E/DX2                !
 ! D16   D(7,2,4,8)             -6.1403         estimate D2E/DX2                !
 ! D17   D(1,2,7,12)           -37.9102         estimate D2E/DX2                !
 ! D18   D(1,2,7,13)          -164.4475         estimate D2E/DX2                !
 ! D19   D(1,2,7,14)            78.1839         estimate D2E/DX2                !
 ! D20   D(4,2,7,12)           146.8281         estimate D2E/DX2                !
 ! D21   D(4,2,7,13)            20.2909         estimate D2E/DX2                !
 ! D22   D(4,2,7,14)           -97.0778         estimate D2E/DX2                !
 ! D23   D(1,3,6,5)              0.1221         estimate D2E/DX2                !
 ! D24   D(1,3,6,10)          -179.8971         estimate D2E/DX2                !
 ! D25   D(11,3,6,5)          -178.6374         estimate D2E/DX2                !
 ! D26   D(11,3,6,10)            1.3434         estimate D2E/DX2                !
 ! D27   D(1,3,11,15)           89.1299         estimate D2E/DX2                !
 ! D28   D(1,3,11,16)          -24.0315         estimate D2E/DX2                !
 ! D29   D(1,3,11,17)         -152.6382         estimate D2E/DX2                !
 ! D30   D(6,3,11,15)          -92.0628         estimate D2E/DX2                !
 ! D31   D(6,3,11,16)          154.7758         estimate D2E/DX2                !
 ! D32   D(6,3,11,17)           26.1691         estimate D2E/DX2                !
 ! D33   D(2,4,5,6)             -0.5603         estimate D2E/DX2                !
 ! D34   D(2,4,5,9)           -179.9176         estimate D2E/DX2                !
 ! D35   D(8,4,5,6)            178.7173         estimate D2E/DX2                !
 ! D36   D(8,4,5,9)             -0.64           estimate D2E/DX2                !
 ! D37   D(4,5,6,3)              1.3661         estimate D2E/DX2                !
 ! D38   D(4,5,6,10)          -178.6144         estimate D2E/DX2                !
 ! D39   D(9,5,6,3)           -179.2758         estimate D2E/DX2                !
 ! D40   D(9,5,6,10)             0.7436         estimate D2E/DX2                !
 ! D41   D(2,7,12,19)          -73.2472         estimate D2E/DX2                !
 ! D42   D(2,7,12,21)          163.2451         estimate D2E/DX2                !
 ! D43   D(13,7,12,19)          52.5401         estimate D2E/DX2                !
 ! D44   D(13,7,12,21)         -70.9676         estimate D2E/DX2                !
 ! D45   D(14,7,12,19)         170.3292         estimate D2E/DX2                !
 ! D46   D(14,7,12,21)          46.8215         estimate D2E/DX2                !
 ! D47   D(3,11,16,18)          34.3651         estimate D2E/DX2                !
 ! D48   D(3,11,16,20)         160.5707         estimate D2E/DX2                !
 ! D49   D(3,11,16,22)         -84.7083         estimate D2E/DX2                !
 ! D50   D(15,11,16,18)        -81.9832         estimate D2E/DX2                !
 ! D51   D(15,11,16,20)         44.2224         estimate D2E/DX2                !
 ! D52   D(15,11,16,22)        158.9434         estimate D2E/DX2                !
 ! D53   D(17,11,16,18)        160.5733         estimate D2E/DX2                !
 ! D54   D(17,11,16,20)        -73.2212         estimate D2E/DX2                !
 ! D55   D(17,11,16,22)         41.4999         estimate D2E/DX2                !
 ! D56   D(7,12,19,29)          56.5549         estimate D2E/DX2                !
 ! D57   D(7,12,19,30)         -66.6538         estimate D2E/DX2                !
 ! D58   D(7,12,19,31)         169.8458         estimate D2E/DX2                !
 ! D59   D(21,12,19,29)        177.944          estimate D2E/DX2                !
 ! D60   D(21,12,19,30)         54.7354         estimate D2E/DX2                !
 ! D61   D(21,12,19,31)        -68.7651         estimate D2E/DX2                !
 ! D62   D(7,12,21,32)         -62.025          estimate D2E/DX2                !
 ! D63   D(7,12,21,33)         178.315          estimate D2E/DX2                !
 ! D64   D(7,12,21,34)          53.3423         estimate D2E/DX2                !
 ! D65   D(19,12,21,32)        175.8891         estimate D2E/DX2                !
 ! D66   D(19,12,21,33)         56.2291         estimate D2E/DX2                !
 ! D67   D(19,12,21,34)        -68.7436         estimate D2E/DX2                !
 ! D68   D(11,16,18,1)         -26.833          estimate D2E/DX2                !
 ! D69   D(11,16,18,35)        161.5341         estimate D2E/DX2                !
 ! D70   D(11,16,18,61)         60.0436         estimate D2E/DX2                !
 ! D71   D(20,16,18,1)        -139.0469         estimate D2E/DX2                !
 ! D72   D(20,16,18,35)         49.3202         estimate D2E/DX2                !
 ! D73   D(20,16,18,61)        -52.1703         estimate D2E/DX2                !
 ! D74   D(22,16,18,1)          82.2972         estimate D2E/DX2                !
 ! D75   D(22,16,18,35)        -89.3358         estimate D2E/DX2                !
 ! D76   D(22,16,18,61)        169.1738         estimate D2E/DX2                !
 ! D77   D(11,16,20,23)        -81.1947         estimate D2E/DX2                !
 ! D78   D(11,16,20,24)        163.5858         estimate D2E/DX2                !
 ! D79   D(11,16,20,25)         39.0049         estimate D2E/DX2                !
 ! D80   D(18,16,20,23)         27.4461         estimate D2E/DX2                !
 ! D81   D(18,16,20,24)        -87.7734         estimate D2E/DX2                !
 ! D82   D(18,16,20,25)        147.6457         estimate D2E/DX2                !
 ! D83   D(22,16,20,23)        168.3669         estimate D2E/DX2                !
 ! D84   D(22,16,20,24)         53.1474         estimate D2E/DX2                !
 ! D85   D(22,16,20,25)        -71.4335         estimate D2E/DX2                !
 ! D86   D(11,16,22,26)         49.9269         estimate D2E/DX2                !
 ! D87   D(11,16,22,27)        -69.9396         estimate D2E/DX2                !
 ! D88   D(11,16,22,28)        166.3773         estimate D2E/DX2                !
 ! D89   D(18,16,22,26)        -55.4825         estimate D2E/DX2                !
 ! D90   D(18,16,22,27)       -175.3489         estimate D2E/DX2                !
 ! D91   D(18,16,22,28)         60.9679         estimate D2E/DX2                !
 ! D92   D(20,16,22,26)        160.8267         estimate D2E/DX2                !
 ! D93   D(20,16,22,27)         40.9602         estimate D2E/DX2                !
 ! D94   D(20,16,22,28)        -82.7229         estimate D2E/DX2                !
 ! D95   D(1,18,61,62)          20.8087         estimate D2E/DX2                !
 ! D96   D(1,18,61,63)         157.4386         estimate D2E/DX2                !
 ! D97   D(16,18,61,62)        -61.5037         estimate D2E/DX2                !
 ! D98   D(16,18,61,63)         75.1262         estimate D2E/DX2                !
 ! D99   D(35,18,61,62)       -160.2363         estimate D2E/DX2                !
 ! D100  D(35,18,61,63)        -23.6063         estimate D2E/DX2                !
 ! D101  D(12,19,30,39)        178.7            estimate D2E/DX2                !
 ! D102  D(12,19,30,40)         60.0389         estimate D2E/DX2                !
 ! D103  D(12,19,30,41)        -62.679          estimate D2E/DX2                !
 ! D104  D(29,19,30,39)         57.3132         estimate D2E/DX2                !
 ! D105  D(29,19,30,40)        -61.3478         estimate D2E/DX2                !
 ! D106  D(29,19,30,41)        175.9342         estimate D2E/DX2                !
 ! D107  D(31,19,30,39)        -59.2595         estimate D2E/DX2                !
 ! D108  D(31,19,30,40)       -177.9206         estimate D2E/DX2                !
 ! D109  D(31,19,30,41)         59.3615         estimate D2E/DX2                !
 ! D110  D(16,20,23,42)       -178.3949         estimate D2E/DX2                !
 ! D111  D(16,20,23,43)         63.122          estimate D2E/DX2                !
 ! D112  D(16,20,23,44)        -59.0676         estimate D2E/DX2                !
 ! D113  D(24,20,23,42)        -62.2004         estimate D2E/DX2                !
 ! D114  D(24,20,23,43)        179.3164         estimate D2E/DX2                !
 ! D115  D(24,20,23,44)         57.1269         estimate D2E/DX2                !
 ! D116  D(25,20,23,42)         58.0365         estimate D2E/DX2                !
 ! D117  D(25,20,23,43)        -60.4467         estimate D2E/DX2                !
 ! D118  D(25,20,23,44)        177.3638         estimate D2E/DX2                !
 ! D119  D(16,20,24,45)        169.2024         estimate D2E/DX2                !
 ! D120  D(16,20,24,46)         51.0385         estimate D2E/DX2                !
 ! D121  D(16,20,24,47)        -71.7537         estimate D2E/DX2                !
 ! D122  D(23,20,24,45)         53.9767         estimate D2E/DX2                !
 ! D123  D(23,20,24,46)        -64.1872         estimate D2E/DX2                !
 ! D124  D(23,20,24,47)        173.0206         estimate D2E/DX2                !
 ! D125  D(25,20,24,45)        -64.5905         estimate D2E/DX2                !
 ! D126  D(25,20,24,46)        177.2456         estimate D2E/DX2                !
 ! D127  D(25,20,24,47)         54.4535         estimate D2E/DX2                !
 ! D128  D(16,20,25,48)       -178.4074         estimate D2E/DX2                !
 ! D129  D(16,20,25,49)         62.113          estimate D2E/DX2                !
 ! D130  D(16,20,25,50)        -60.6791         estimate D2E/DX2                !
 ! D131  D(23,20,25,48)        -59.109          estimate D2E/DX2                !
 ! D132  D(23,20,25,49)       -178.5885         estimate D2E/DX2                !
 ! D133  D(23,20,25,50)         58.6194         estimate D2E/DX2                !
 ! D134  D(24,20,25,48)         58.4874         estimate D2E/DX2                !
 ! D135  D(24,20,25,49)        -60.9922         estimate D2E/DX2                !
 ! D136  D(24,20,25,50)        176.2157         estimate D2E/DX2                !
 ! D137  D(12,21,33,36)         54.3533         estimate D2E/DX2                !
 ! D138  D(12,21,33,37)        -68.4698         estimate D2E/DX2                !
 ! D139  D(12,21,33,38)        172.8712         estimate D2E/DX2                !
 ! D140  D(32,21,33,36)        -62.9039         estimate D2E/DX2                !
 ! D141  D(32,21,33,37)        174.273          estimate D2E/DX2                !
 ! D142  D(32,21,33,38)         55.6139         estimate D2E/DX2                !
 ! D143  D(34,21,33,36)        178.1919         estimate D2E/DX2                !
 ! D144  D(34,21,33,37)         55.3688         estimate D2E/DX2                !
 ! D145  D(34,21,33,38)        -63.2902         estimate D2E/DX2                !
 ! D146  D(16,22,26,57)        173.0683         estimate D2E/DX2                !
 ! D147  D(16,22,26,58)         54.3686         estimate D2E/DX2                !
 ! D148  D(16,22,26,59)        -68.3867         estimate D2E/DX2                !
 ! D149  D(27,22,26,57)        -63.441          estimate D2E/DX2                !
 ! D150  D(27,22,26,58)        177.8593         estimate D2E/DX2                !
 ! D151  D(27,22,26,59)         55.104          estimate D2E/DX2                !
 ! D152  D(28,22,26,57)         55.738          estimate D2E/DX2                !
 ! D153  D(28,22,26,58)        -62.9617         estimate D2E/DX2                !
 ! D154  D(28,22,26,59)        174.283          estimate D2E/DX2                !
 ! D155  D(16,22,27,51)        -67.7757         estimate D2E/DX2                !
 ! D156  D(16,22,27,52)        173.5515         estimate D2E/DX2                !
 ! D157  D(16,22,27,53)         55.133          estimate D2E/DX2                !
 ! D158  D(26,22,27,51)        172.6458         estimate D2E/DX2                !
 ! D159  D(26,22,27,52)         53.9731         estimate D2E/DX2                !
 ! D160  D(26,22,27,53)        -64.4455         estimate D2E/DX2                !
 ! D161  D(28,22,27,51)         55.1809         estimate D2E/DX2                !
 ! D162  D(28,22,27,52)        -63.4919         estimate D2E/DX2                !
 ! D163  D(28,22,27,53)        178.0896         estimate D2E/DX2                !
 ! D164  D(16,22,28,54)         66.9162         estimate D2E/DX2                !
 ! D165  D(16,22,28,55)        -54.4903         estimate D2E/DX2                !
 ! D166  D(16,22,28,56)       -173.4115         estimate D2E/DX2                !
 ! D167  D(26,22,28,54)       -176.6498         estimate D2E/DX2                !
 ! D168  D(26,22,28,55)         61.9437         estimate D2E/DX2                !
 ! D169  D(26,22,28,56)        -56.9775         estimate D2E/DX2                !
 ! D170  D(27,22,28,54)        -58.8862         estimate D2E/DX2                !
 ! D171  D(27,22,28,55)        179.7073         estimate D2E/DX2                !
 ! D172  D(27,22,28,56)         60.7862         estimate D2E/DX2                !
 --------------------------------------------------------------------------------
 Trust Radius=3.00D-01 FncErr=1.00D-07 GrdErr=1.00D-06 EigMax=2.50D+02 EigMin=1.00D-04
 Number of steps in this run=    369 maximum allowed number of steps=    378.
 GradGradGradGradGradGradGradGradGradGradGradGradGradGradGradGradGradGrad

 Stoichiometry    C20H37N2O2PRu
 Framework group  C1[X(C20H37N2O2PRu)]
 Deg. of freedom   183
 Full point group                 C1      NOp   1
 Largest Abelian subgroup         C1      NOp   1
 Largest concise Abelian subgroup C1      NOp   1
                         Standard orientation:                         
 ---------------------------------------------------------------------
 Center     Atomic      Atomic             Coordinates (Angstroms)
 Number     Number       Type             X           Y           Z
 ---------------------------------------------------------------------
      1          7           0       -0.734821    1.434505   -0.175343
      2          6           0       -1.911642    1.917060    0.270063
      3          6           0        0.199390    2.262453   -0.696922
      4          6           0       -2.232443    3.263011    0.146845
      5          6           0       -1.296069    4.127603   -0.416437
      6          6           0       -0.065254    3.623742   -0.827901
      7          6           0       -2.755032    0.904573    0.984976
      8          1           0       -3.198588    3.626358    0.499268
      9          1           0       -1.520117    5.190069   -0.524579
     10          1           0        0.695221    4.280963   -1.251416
     11          6           0        1.503028    1.624369   -1.081995
     12          7           0       -2.675627   -0.432889    0.368698
     13          1           0       -3.796355    1.258706    1.080884
     14          1           0       -2.335443    0.801065    1.999298
     15          1           0        1.436537    1.274678   -2.127244
     16         15           0        1.748021    0.044178   -0.087524
     17          1           0        2.329895    2.348656   -1.027680
     18         44           0       -0.417776   -0.575318    0.012186
     19          6           0       -3.427004   -0.448175   -0.909756
     20          6           0        3.043691   -0.937160   -1.074683
     21          6           0       -3.184808   -1.434122    1.334081
     22          6           0        2.519106    0.657346    1.549582
     23          6           0        2.302310   -1.641519   -2.211573
     24          6           0        3.619105   -2.029242   -0.169842
     25          6           0        4.153709   -0.073427   -1.675633
     26          6           0        1.650567    1.808140    2.068799
     27          6           0        3.951407    1.170010    1.406497
     28          6           0        2.459039   -0.471458    2.581950
     29          1           0       -2.996944    0.349837   -1.533766
     30          6           0       -4.936663   -0.280297   -0.819424
     31          1           0       -3.186913   -1.393354   -1.412011
     32          1           0       -2.507280   -1.376416    2.198318
     33          6           0       -3.186053   -2.845018    0.786063
     34          1           0       -4.194219   -1.132068    1.679500
     35          6           0       -0.097134   -2.392293    0.456866
     36          1           0       -2.169569   -3.088343    0.425666
     37          1           0       -3.923942   -2.985562   -0.018790
     38          1           0       -3.452800   -3.540607    1.596343
     39          1           0       -5.352464   -0.288142   -1.838134
     40          1           0       -5.237943    0.671052   -0.355441
     41          1           0       -5.415528   -1.099058   -0.262887
     42          1           0        3.030015   -2.242073   -2.782723
     43          1           0        1.839036   -0.935045   -2.915400
     44          1           0        1.525105   -2.309605   -1.814684
     45          1           0        4.220946   -2.718762   -0.785027
     46          1           0        2.808753   -2.612275    0.294586
     47          1           0        4.276662   -1.631881    0.615211
     48          1           0        4.836137   -0.722972   -2.249554
     49          1           0        4.754947    0.451528   -0.924120
     50          1           0        3.754571    0.672317   -2.380094
     51          1           0        4.665017    0.372186    1.161406
     52          1           0        4.269808    1.606845    2.368018
     53          1           0        4.038945    1.961635    0.646077
     54          1           0        3.101806   -1.321708    2.322353
     55          1           0        1.425434   -0.832582    2.684318
     56          1           0        2.793950   -0.082017    3.558124
     57          1           0        2.008109    2.090114    3.072942
     58          1           0        0.599199    1.498693    2.152840
     59          1           0        1.715523    2.705058    1.434982
     60          8           0        0.017071   -3.522860    0.686397
     61          8           0       -0.917649   -0.790056   -2.081181
     62          1           0       -0.837436    0.015421   -2.615672
     63          1           0       -0.616010   -1.552942   -2.598803
 ---------------------------------------------------------------------
 Rotational constants (GHZ):           0.2513771           0.1653416           0.1299258
 General basis read from cards:  (5D, 7F)
 ======================================================================================================
                                       Pseudopotential Parameters
 ======================================================================================================
  Center     Atomic      Valence      Angular      Power
  Number     Number     Electrons     Momentum     of R      Exponent        Coefficient   SO-Coeffient
 ======================================================================================================
    1          7
                                   No pseudopotential on this center.
    2          6
                                   No pseudopotential on this center.
    3          6
                                   No pseudopotential on this center.
    4          6
                                   No pseudopotential on this center.
    5          6
                                   No pseudopotential on this center.
    6          6
                                   No pseudopotential on this center.
    7          6
                                   No pseudopotential on this center.
    8          1
                                   No pseudopotential on this center.
    9          1
                                   No pseudopotential on this center.
   10          1
                                   No pseudopotential on this center.
   11          6
                                   No pseudopotential on this center.
   12          7
                                   No pseudopotential on this center.
   13          1
                                   No pseudopotential on this center.
   14          1
                                   No pseudopotential on this center.
   15          1
                                   No pseudopotential on this center.
   16         15
                                   No pseudopotential on this center.
   17          1
                                   No pseudopotential on this center.
   18         44           16
                                      G and up 
                                                     2        1.0000000        0.00000000    0.00000000
                                      S - G
                                                     2       11.1052690      209.82297100    0.00000000
                                                     2        5.4147450       30.65472600    0.00000000
                                      P - G
                                                     2        9.7712710      146.33618200    0.00000000
                                                     2        5.0739910       24.12787700    0.00000000
                                      D - G
                                                     2        7.6714230       67.51589700    0.00000000
                                                     2        4.1365650        9.87010400    0.00000000
                                      F - G
                                                     2       11.3600000      -28.34061600    0.00000000
                                                     2        5.6800000       -4.94462900    0.00000000
   19          6
                                   No pseudopotential on this center.
   20          6
                                   No pseudopotential on this center.
   21          6
                                   No pseudopotential on this center.
   22          6
                                   No pseudopotential on this center.
   23          6
                                   No pseudopotential on this center.
   24          6
                                   No pseudopotential on this center.
   25          6
                                   No pseudopotential on this center.
   26          6
                                   No pseudopotential on this center.
   27          6
                                   No pseudopotential on this center.
   28          6
                                   No pseudopotential on this center.
   29          1
                                   No pseudopotential on this center.
   30          6
                                   No pseudopotential on this center.
   31          1
                                   No pseudopotential on this center.
   32          1
                                   No pseudopotential on this center.
   33          6
                                   No pseudopotential on this center.
   34          1
                                   No pseudopotential on this center.
   35          6
                                   No pseudopotential on this center.
   36          1
                                   No pseudopotential on this center.
   37          1
                                   No pseudopotential on this center.
   38          1
                                   No pseudopotential on this center.
   39          1
                                   No pseudopotential on this center.
   40          1
                                   No pseudopotential on this center.
   41          1
                                   No pseudopotential on this center.
   42          1
                                   No pseudopotential on this center.
   43          1
                                   No pseudopotential on this center.
   44          1
                                   No pseudopotential on this center.
   45          1
                                   No pseudopotential on this center.
   46          1
                                   No pseudopotential on this center.
   47          1
                                   No pseudopotential on this center.
   48          1
                                   No pseudopotential on this center.
   49          1
                                   No pseudopotential on this center.
   50          1
                                   No pseudopotential on this center.
   51          1
                                   No pseudopotential on this center.
   52          1
                                   No pseudopotential on this center.
   53          1
                                   No pseudopotential on this center.
   54          1
                                   No pseudopotential on this center.
   55          1
                                   No pseudopotential on this center.
   56          1
                                   No pseudopotential on this center.
   57          1
                                   No pseudopotential on this center.
   58          1
                                   No pseudopotential on this center.
   59          1
                                   No pseudopotential on this center.
   60          8
                                   No pseudopotential on this center.
   61          8
                                   No pseudopotential on this center.
   62          1
                                   No pseudopotential on this center.
   63          1
                                   No pseudopotential on this center.
 ======================================================================================================
 There are   603 symmetry adapted cartesian basis functions of A   symmetry.
 There are   575 symmetry adapted basis functions of A   symmetry.
   575 basis functions,  1187 primitive gaussians,   603 cartesian basis functions
   109 alpha electrons      109 beta electrons
       nuclear repulsion energy      3236.8948202495 Hartrees.
 NAtoms=   63 NActive=   63 NUniq=   63 SFac= 1.00D+00 NAtFMM=   60 NAOKFM=T Big=T
 Integral buffers will be    131072 words long.
 Raffenetti 2 integral format.
 Two-electron integral symmetry is turned on.
 Nuclear repulsion after empirical dispersion term =     3236.7983962336 Hartrees.
 One-electron integrals computed using PRISM.
   1 Symmetry operations used in ECPInt.
 ECPInt:  NShTT=   38503 NPrTT=  265225 LenC2=   35777 LenP2D=  135540.
 LDataN:  DoStor=T MaxTD1= 6 Len=  172
 Number of processors reduced to  16 by ecpmxn.
 NBasis=   575 RedAO= T EigKep=  4.42D-04  NBF=   575
 NBsUse=   575 1.00D-06 EigRej= -1.00D+00 NBFU=   575
 Defaulting to unpruned grid for atomic number  44.
 ExpMin= 1.60D-02 ExpMax= 9.48D+04 ExpMxC= 3.24D+03 IAcc=3 IRadAn=         5 AccDes= 0.00D+00
 Harris functional with IExCor= 1009 and IRadAn=       5 diagonalized for initial guess.
 HarFok:  IExCor= 1009 AccDes= 0.00D+00 IRadAn=         5 IDoV= 1 UseB2=F ITyADJ=14
 ICtDFT=  3500011 ScaDFX=  1.000000  1.000000  1.000000  1.000000
 Defaulting to unpruned grid for atomic number  44.
 FoFCou: FMM=F IPFlag=           0 FMFlag=      100000 FMFlg1=        2001
         NFxFlg=           0 DoJE=T BraDBF=F KetDBF=T FulRan=T
         wScrn=  0.000000 ICntrl=       500 IOpCl=  0 I1Cent=   200000004 NGrid=           0
         NMat0=    1 NMatS0=      1 NMatT0=    0 NMatD0=    1 NMtDS0=    0 NMtDT0=    0
 Petite list used in FoFCou.
 Requested convergence on RMS density matrix=1.00D-08 within 128 cycles.
 Requested convergence on MAX density matrix=1.00D-06.
 Requested convergence on             energy=1.00D-06.
 No special actions if energy rises.
 Defaulting to unpruned grid for atomic number  44.
 Defaulting to unpruned grid for atomic number  44.
 Defaulting to unpruned grid for atomic number  44.
 Defaulting to unpruned grid for atomic number  44.
 Defaulting to unpruned grid for atomic number  44.
 Defaulting to unpruned grid for atomic number  44.
 Defaulting to unpruned grid for atomic number  44.
 Defaulting to unpruned grid for atomic number  44.
 Defaulting to unpruned grid for atomic number  44.
 Defaulting to unpruned grid for atomic number  44.
 Defaulting to unpruned grid for atomic number  44.
 Defaulting to unpruned grid for atomic number  44.
 Defaulting to unpruned grid for atomic number  44.
 Defaulting to unpruned grid for atomic number  44.
 Defaulting to unpruned grid for atomic number  44.
 Defaulting to unpruned grid for atomic number  44.
 Defaulting to unpruned grid for atomic number  44.
 Defaulting to unpruned grid for atomic number  44.
 Defaulting to unpruned grid for atomic number  44.
 Defaulting to unpruned grid for atomic number  44.
 EnCoef did     5 forward-backward iterations
 EnCoef did     3 forward-backward iterations
 SCF Done:  E(RPBE1PBE) =  -1479.42890389     A.U. after   19 cycles
            NFock= 19  Conv=0.40D-08     -V/T= 2.0486

 **********************************************************************

            Population analysis using the SCF density.

 **********************************************************************

 Orbital symmetries:
       Occupied  (A) (A) (A) (A) (A) (A) (A) (A) (A) (A) (A) (A)
                 (A) (A) (A) (A) (A) (A) (A) (A) (A) (A) (A) (A)
                 (A) (A) (A) (A) (A) (A) (A) (A) (A) (A) (A) (A)
                 (A) (A) (A) (A) (A) (A) (A) (A) (A) (A) (A) (A)
                 (A) (A) (A) (A) (A) (A) (A) (A) (A) (A) (A) (A)
                 (A) (A) (A) (A) (A) (A) (A) (A) (A) (A) (A) (A)
                 (A) (A) (A) (A) (A) (A) (A) (A) (A) (A) (A) (A)
                 (A) (A) (A) (A) (A) (A) (A) (A) (A) (A) (A) (A)
                 (A) (A) (A) (A) (A) (A) (A) (A) (A) (A) (A) (A)
                 (A)
       Virtual   (A) (A) (A) (A) (A) (A) (A) (A) (A) (A) (A) (A)
                 (A) (A) (A) (A) (A) (A) (A) (A) (A) (A) (A) (A)
                 (A) (A) (A) (A) (A) (A) (A) (A) (A) (A) (A) (A)
                 (A) (A) (A) (A) (A) (A) (A) (A) (A) (A) (A) (A)
                 (A) (A) (A) (A) (A) (A) (A) (A) (A) (A) (A) (A)
                 (A) (A) (A) (A) (A) (A) (A) (A) (A) (A) (A) (A)
                 (A) (A) (A) (A) (A) (A) (A) (A) (A) (A) (A) (A)
                 (A) (A) (A) (A) (A) (A) (A) (A) (A) (A) (A) (A)
                 (A) (A) (A) (A) (A) (A) (A) (A) (A) (A) (A) (A)
                 (A) (A) (A) (A) (A) (A) (A) (A) (A) (A) (A) (A)
                 (A) (A) (A) (A) (A) (A) (A) (A) (A) (A) (A) (A)
                 (A) (A) (A) (A) (A) (A) (A) (A) (A) (A) (A) (A)
                 (A) (A) (A) (A) (A) (A) (A) (A) (A) (A) (A) (A)
                 (A) (A) (A) (A) (A) (A) (A) (A) (A) (A) (A) (A)
                 (A) (A) (A) (A) (A) (A) (A) (A) (A) (A) (A) (A)
                 (A) (A) (A) (A) (A) (A) (A) (A) (A) (A) (A) (A)
                 (A) (A) (A) (A) (A) (A) (A) (A) (A) (A) (A) (A)
                 (A) (A) (A) (A) (A) (A) (A) (A) (A) (A) (A) (A)
                 (A) (A) (A) (A) (A) (A) (A) (A) (A) (A) (A) (A)
                 (A) (A) (A) (A) (A) (A) (A) (A) (A) (A) (A) (A)
                 (A) (A) (A) (A) (A) (A) (A) (A) (A) (A) (A) (A)
                 (A) (A) (A) (A) (A) (A) (A) (A) (A) (A) (A) (A)
                 (A) (A) (A) (A) (A) (A) (A) (A) (A) (A) (A) (A)
                 (A) (A) (A) (A) (A) (A) (A) (A) (A) (A) (A) (A)
                 (A) (A) (A) (A) (A) (A) (A) (A) (A) (A) (A) (A)
                 (A) (A) (A) (A) (A) (A) (A) (A) (A) (A) (A) (A)
                 (A) (A) (A) (A) (A) (A) (A) (A) (A) (A) (A) (A)
                 (A) (A) (A) (A) (A) (A) (A) (A) (A) (A) (A) (A)
                 (A) (A) (A) (A) (A) (A) (A) (A) (A) (A) (A) (A)
                 (A) (A) (A) (A) (A) (A) (A) (A) (A) (A) (A) (A)
                 (A) (A) (A) (A) (A) (A) (A) (A) (A) (A) (A) (A)
                 (A) (A) (A) (A) (A) (A) (A) (A) (A) (A) (A) (A)
                 (A) (A) (A) (A) (A) (A) (A) (A) (A) (A) (A) (A)
                 (A) (A) (A) (A) (A) (A) (A) (A) (A) (A) (A) (A)
                 (A) (A) (A) (A) (A) (A) (A) (A) (A) (A) (A) (A)
                 (A) (A) (A) (A) (A) (A) (A) (A) (A) (A) (A) (A)
                 (A) (A) (A) (A) (A) (A) (A) (A) (A) (A) (A) (A)
                 (A) (A) (A) (A) (A) (A) (A) (A) (A) (A) (A) (A)
                 (A) (A) (A) (A) (A) (A) (A) (A) (A) (A)
 The electronic state is 1-A.
 Alpha  occ. eigenvalues --  -77.23625 -19.26031 -19.21549 -14.42558 -14.41632
 Alpha  occ. eigenvalues --  -10.27605 -10.27060 -10.26983 -10.26372 -10.25667
 Alpha  occ. eigenvalues --  -10.25242 -10.25143 -10.24458 -10.24054 -10.23948
 Alpha  occ. eigenvalues --  -10.23934 -10.23791 -10.22989 -10.22672 -10.22665
 Alpha  occ. eigenvalues --  -10.22153 -10.21994 -10.21223 -10.20616 -10.20150
 Alpha  occ. eigenvalues --   -6.61447  -4.75140  -4.75009  -4.74719  -2.96478
 Alpha  occ. eigenvalues --   -1.81409  -1.80105  -1.77585  -1.08586  -1.07343
 Alpha  occ. eigenvalues --   -0.99024  -0.96082  -0.84784  -0.82694  -0.82432
 Alpha  occ. eigenvalues --   -0.81963  -0.78127  -0.76831  -0.73603  -0.70996
 Alpha  occ. eigenvalues --   -0.70454  -0.69934  -0.69429  -0.68408  -0.66014
 Alpha  occ. eigenvalues --   -0.64775  -0.62328  -0.61262  -0.58775  -0.57550
 Alpha  occ. eigenvalues --   -0.55680  -0.52966  -0.52596  -0.51753  -0.51071
 Alpha  occ. eigenvalues --   -0.50836  -0.49414  -0.48060  -0.47159  -0.46467
 Alpha  occ. eigenvalues --   -0.46108  -0.45673  -0.45437  -0.44761  -0.43873
 Alpha  occ. eigenvalues --   -0.43682  -0.43385  -0.43041  -0.42660  -0.42055
 Alpha  occ. eigenvalues --   -0.41694  -0.41452  -0.40447  -0.40006  -0.39889
 Alpha  occ. eigenvalues --   -0.39575  -0.39178  -0.38872  -0.38504  -0.38167
 Alpha  occ. eigenvalues --   -0.37728  -0.37304  -0.37147  -0.36386  -0.36124
 Alpha  occ. eigenvalues --   -0.35788  -0.35152  -0.34981  -0.34832  -0.34540
 Alpha  occ. eigenvalues --   -0.33828  -0.32985  -0.32515  -0.31722  -0.31079
 Alpha  occ. eigenvalues --   -0.30349  -0.30005  -0.28959  -0.25882  -0.25344
 Alpha  occ. eigenvalues --   -0.19518  -0.17078  -0.15761  -0.09709
 Alpha virt. eigenvalues --   -0.03023  -0.01191  -0.00861   0.02056   0.02715
 Alpha virt. eigenvalues --    0.03492   0.04946   0.06055   0.06724   0.07449
 Alpha virt. eigenvalues --    0.08151   0.08586   0.08792   0.09353   0.09702
 Alpha virt. eigenvalues --    0.10106   0.10341   0.10631   0.10967   0.11240
 Alpha virt. eigenvalues --    0.11617   0.12435   0.12483   0.13264   0.13544
 Alpha virt. eigenvalues --    0.13680   0.13811   0.14001   0.14494   0.14907
 Alpha virt. eigenvalues --    0.15475   0.15700   0.16150   0.16286   0.16940
 Alpha virt. eigenvalues --    0.17582   0.17939   0.18125   0.18419   0.18500
 Alpha virt. eigenvalues --    0.18936   0.19281   0.19557   0.20031   0.20181
 Alpha virt. eigenvalues --    0.20507   0.20673   0.21268   0.21663   0.21937
 Alpha virt. eigenvalues --    0.21973   0.22438   0.22943   0.23402   0.23554
 Alpha virt. eigenvalues --    0.24061   0.24454   0.25346   0.26131   0.26739
 Alpha virt. eigenvalues --    0.27165   0.28045   0.28347   0.28929   0.29332
 Alpha virt. eigenvalues --    0.30519   0.30884   0.31507   0.32442   0.32917
 Alpha virt. eigenvalues --    0.33335   0.33633   0.34631   0.35491   0.35665
 Alpha virt. eigenvalues --    0.37905   0.38450   0.39482   0.41710   0.41861
 Alpha virt. eigenvalues --    0.42804   0.43822   0.44686   0.44917   0.45632
 Alpha virt. eigenvalues --    0.45674   0.46376   0.47037   0.47755   0.48709
 Alpha virt. eigenvalues --    0.48860   0.49978   0.50489   0.50957   0.51596
 Alpha virt. eigenvalues --    0.52222   0.52647   0.53366   0.53497   0.53852
 Alpha virt. eigenvalues --    0.54716   0.55108   0.56318   0.56824   0.56941
 Alpha virt. eigenvalues --    0.57942   0.58334   0.58721   0.59383   0.59719
 Alpha virt. eigenvalues --    0.60213   0.61019   0.61293   0.61650   0.62251
 Alpha virt. eigenvalues --    0.62428   0.62671   0.63403   0.63786   0.63963
 Alpha virt. eigenvalues --    0.64592   0.64956   0.65291   0.65343   0.65646
 Alpha virt. eigenvalues --    0.66147   0.66272   0.66826   0.67104   0.67270
 Alpha virt. eigenvalues --    0.67497   0.67812   0.67953   0.68588   0.68797
 Alpha virt. eigenvalues --    0.69235   0.69357   0.69787   0.70463   0.70503
 Alpha virt. eigenvalues --    0.71030   0.71073   0.71818   0.72120   0.72439
 Alpha virt. eigenvalues --    0.72955   0.73408   0.73587   0.74124   0.74493
 Alpha virt. eigenvalues --    0.74832   0.75446   0.75788   0.75977   0.76550
 Alpha virt. eigenvalues --    0.77003   0.77204   0.77811   0.78380   0.78683
 Alpha virt. eigenvalues --    0.79501   0.79827   0.80462   0.80819   0.81058
 Alpha virt. eigenvalues --    0.81523   0.81787   0.82595   0.83323   0.84081
 Alpha virt. eigenvalues --    0.85017   0.85443   0.85684   0.86643   0.86788
 Alpha virt. eigenvalues --    0.87960   0.88300   0.88952   0.90218   0.90317
 Alpha virt. eigenvalues --    0.91219   0.91879   0.93281   0.93841   0.94379
 Alpha virt. eigenvalues --    0.95188   0.95655   0.95842   0.96732   0.96857
 Alpha virt. eigenvalues --    0.97371   0.98609   0.98773   0.99735   1.00558
 Alpha virt. eigenvalues --    1.01473   1.02509   1.02796   1.03779   1.04345
 Alpha virt. eigenvalues --    1.04948   1.05675   1.06875   1.08230   1.08875
 Alpha virt. eigenvalues --    1.09491   1.10430   1.10701   1.12223   1.13563
 Alpha virt. eigenvalues --    1.14094   1.14283   1.15524   1.15857   1.16130
 Alpha virt. eigenvalues --    1.17594   1.18745   1.19413   1.21106   1.23071
 Alpha virt. eigenvalues --    1.23571   1.24045   1.25007   1.26311   1.26935
 Alpha virt. eigenvalues --    1.27701   1.28186   1.30313   1.31083   1.31312
 Alpha virt. eigenvalues --    1.32226   1.32395   1.32679   1.33126   1.34540
 Alpha virt. eigenvalues --    1.35495   1.35971   1.37188   1.38330   1.38481
 Alpha virt. eigenvalues --    1.38884   1.38999   1.39490   1.41115   1.41958
 Alpha virt. eigenvalues --    1.42794   1.43312   1.43622   1.44111   1.44856
 Alpha virt. eigenvalues --    1.45065   1.45536   1.46291   1.46508   1.47197
 Alpha virt. eigenvalues --    1.47731   1.48366   1.49029   1.49769   1.50204
 Alpha virt. eigenvalues --    1.51283   1.51579   1.52234   1.53069   1.54001
 Alpha virt. eigenvalues --    1.54064   1.54975   1.55757   1.56066   1.56686
 Alpha virt. eigenvalues --    1.57047   1.58392   1.58605   1.59310   1.60646
 Alpha virt. eigenvalues --    1.60683   1.61251   1.61344   1.61711   1.62604
 Alpha virt. eigenvalues --    1.63110   1.63803   1.64370   1.65171   1.65393
 Alpha virt. eigenvalues --    1.66132   1.66832   1.67450   1.67636   1.68404
 Alpha virt. eigenvalues --    1.69060   1.69226   1.69783   1.70442   1.70799
 Alpha virt. eigenvalues --    1.71038   1.71522   1.71742   1.71771   1.72340
 Alpha virt. eigenvalues --    1.73187   1.73525   1.73944   1.74163   1.74516
 Alpha virt. eigenvalues --    1.75256   1.75509   1.75896   1.76143   1.76473
 Alpha virt. eigenvalues --    1.77003   1.77452   1.77546   1.78624   1.78738
 Alpha virt. eigenvalues --    1.79148   1.79512   1.80563   1.80930   1.81259
 Alpha virt. eigenvalues --    1.81500   1.82901   1.82981   1.83639   1.84495
 Alpha virt. eigenvalues --    1.84891   1.85567   1.85723   1.86684   1.87151
 Alpha virt. eigenvalues --    1.87715   1.88473   1.88601   1.89261   1.89583
 Alpha virt. eigenvalues --    1.90252   1.91586   1.92044   1.92509   1.92986
 Alpha virt. eigenvalues --    1.94325   1.94660   1.96061   1.96601   1.97893
 Alpha virt. eigenvalues --    1.98064   1.98865   1.99299   2.00165   2.00301
 Alpha virt. eigenvalues --    2.01384   2.01761   2.02215   2.02481   2.03322
 Alpha virt. eigenvalues --    2.04050   2.04934   2.05296   2.05920   2.06478
 Alpha virt. eigenvalues --    2.06828   2.07507   2.07556   2.08524   2.09104
 Alpha virt. eigenvalues --    2.10362   2.10425   2.11367   2.11847   2.12542
 Alpha virt. eigenvalues --    2.13152   2.14654   2.15101   2.15600   2.16302
 Alpha virt. eigenvalues --    2.16637   2.17413   2.19677   2.20889   2.21539
 Alpha virt. eigenvalues --    2.22313   2.23275   2.24595   2.25616   2.25965
 Alpha virt. eigenvalues --    2.26434   2.26531   2.27576   2.28316   2.28738
 Alpha virt. eigenvalues --    2.29818   2.30474   2.32132   2.32884   2.35374
 Alpha virt. eigenvalues --    2.39176   2.39932   2.41517   2.42011   2.42286
 Alpha virt. eigenvalues --    2.42665   2.43337   2.43484   2.43677   2.44480
 Alpha virt. eigenvalues --    2.45346   2.45906   2.46157   2.46808   2.47398
 Alpha virt. eigenvalues --    2.47806   2.48895   2.49303   2.49988   2.50684
 Alpha virt. eigenvalues --    2.51283   2.51592   2.52722   2.53181   2.54024
 Alpha virt. eigenvalues --    2.54629   2.54951   2.56347   2.56507   2.56986
 Alpha virt. eigenvalues --    2.57048   2.58667   2.59202   2.59351   2.59826
 Alpha virt. eigenvalues --    2.60865   2.61273   2.62076   2.63264   2.66221
 Alpha virt. eigenvalues --    2.67579   2.67767   2.69094   2.69682   2.70066
 Alpha virt. eigenvalues --    2.70969   2.72385   2.73924   2.74730   2.78363
 Alpha virt. eigenvalues --    2.78845   2.79698   2.82245   2.82910   2.83881
 Alpha virt. eigenvalues --    2.86362   2.92826   2.95817   3.00466   3.05074
 Alpha virt. eigenvalues --    3.08598   3.15089   3.17577   3.51172   3.56093
 Alpha virt. eigenvalues --    3.62489   3.81842  34.66341  35.11230  35.12311
 Alpha virt. eigenvalues --   46.08877
          Condensed to atoms (all electrons):
 Mulliken charges:
               1
     1  N   -0.366097
     2  C    0.030933
     3  C    0.031694
     4  C   -0.041757
     5  C    0.043350
     6  C   -0.042671
     7  C    0.126275
     8  H   -0.006370
     9  H    0.001727
    10  H   -0.007441
    11  C   -0.098238
    12  N   -0.391520
    13  H    0.025425
    14  H    0.098722
    15  H    0.084023
    16  P    0.199738
    17  H    0.052344
    18  Ru  -0.271602
    19  C   -0.011345
    20  C   -0.469347
    21  C    0.009175
    22  C   -0.446246
    23  C    0.006944
    24  C   -0.011835
    25  C    0.013778
    26  C   -0.011227
    27  C    0.016102
    28  C   -0.011455
    29  H    0.083836
    30  C   -0.061271
    31  H    0.087522
    32  H    0.083319
    33  C   -0.103934
    34  H    0.021193
    35  C   -0.024410
    36  H    0.120882
    37  H    0.040590
    38  H    0.050332
    39  H    0.050652
    40  H    0.048844
    41  H    0.054138
    42  H    0.035427
    43  H    0.034999
    44  H    0.104361
    45  H    0.035599
    46  H    0.089594
    47  H    0.049042
    48  H    0.033539
    49  H    0.035850
    50  H    0.039372
    51  H    0.043208
    52  H    0.034742
    53  H    0.035997
    54  H    0.029899
    55  H    0.120881
    56  H    0.025253
    57  H    0.028707
    58  H    0.115507
    59  H    0.039205
    60  O   -0.157405
    61  O   -0.129033
    62  H    0.166814
    63  H    0.183671
 Sum of Mulliken charges =  -0.00000
 Mulliken charges with hydrogens summed into heavy atoms:
               1
     1  N   -0.366097
     2  C    0.030933
     3  C    0.031694
     4  C   -0.048127
     5  C    0.045077
     6  C   -0.050112
     7  C    0.250421
    11  C    0.038128
    12  N   -0.391520
    16  P    0.199738
    18  Ru  -0.271602
    19  C    0.160014
    20  C   -0.469347
    21  C    0.113687
    22  C   -0.446246
    23  C    0.181731
    24  C    0.162400
    25  C    0.122540
    26  C    0.172191
    27  C    0.130048
    28  C    0.164578
    30  C    0.092363
    33  C    0.107869
    35  C   -0.024410
    60  O   -0.157405
    61  O    0.221452
 Electronic spatial extent (au):  <R**2>=           9550.2024
 Charge=             -0.0000 electrons
 Dipole moment (field-independent basis, Debye):
    X=             -1.0012    Y=              3.1751    Z=             -3.9204  Tot=              5.1432
 Quadrupole moment (field-independent basis, Debye-Ang):
   XX=           -168.7709   YY=           -189.9389   ZZ=           -177.6747
   XY=              0.1345   XZ=             -2.4950   YZ=              4.3878
 Traceless Quadrupole moment (field-independent basis, Debye-Ang):
   XX=             10.0239   YY=            -11.1440   ZZ=              1.1201
   XY=              0.1345   XZ=             -2.4950   YZ=              4.3878
 Octapole moment (field-independent basis, Debye-Ang**2):
  XXX=            -55.6709  YYY=             21.7238  ZZZ=            -33.0311  XYY=            -17.8339
  XXY=            -18.7738  XXZ=              3.9392  XZZ=            -15.2330  YZZ=            -24.6379
  YYZ=            -22.7523  XYZ=             -2.7238
 Hexadecapole moment (field-independent basis, Debye-Ang**3):
 XXXX=          -7136.8890 YYYY=          -4035.5476 ZZZZ=          -1865.9831 XXXY=            -19.6051
 XXXZ=            -15.4885 YYYX=             -4.1953 YYYZ=              2.0782 ZZZX=             22.2068
 ZZZY=             31.9138 XXYY=          -1808.7516 XXZZ=          -1510.9704 YYZZ=           -996.6024
 XXYZ=             17.1567 YYXZ=            -33.3643 ZZXY=             29.0704
 N-N= 3.236798396234D+03 E-N=-9.910541965351D+03  KE= 1.410839219658D+03
   1 Symmetry operations used in ECPInt.
 ECPInt:  NShTT=   38503 NPrTT=  265225 LenC2=   35777 LenP2D=  135540.
 LDataN:  DoStor=T MaxTD1= 7 Len=  274
 Number of processors reduced to  17 by ecpmxn.
 Calling FoFJK, ICntrl=      2127 FMM=T ISym2X=0 I1Cent= 0 IOpClX= 0 NMat=1 NMatS=1 NMatT=0.
 Defaulting to unpruned grid for atomic number  44.
 Defaulting to unpruned grid for atomic number  44.
 Defaulting to unpruned grid for atomic number  44.
 Defaulting to unpruned grid for atomic number  44.
 Defaulting to unpruned grid for atomic number  44.
 Defaulting to unpruned grid for atomic number  44.
 Defaulting to unpruned grid for atomic number  44.
 Defaulting to unpruned grid for atomic number  44.
 Defaulting to unpruned grid for atomic number  44.
 Defaulting to unpruned grid for atomic number  44.
 Defaulting to unpruned grid for atomic number  44.
 Defaulting to unpruned grid for atomic number  44.
 Defaulting to unpruned grid for atomic number  44.
 Defaulting to unpruned grid for atomic number  44.
 Defaulting to unpruned grid for atomic number  44.
 Defaulting to unpruned grid for atomic number  44.
 Defaulting to unpruned grid for atomic number  44.
 Defaulting to unpruned grid for atomic number  44.
 Defaulting to unpruned grid for atomic number  44.
 Defaulting to unpruned grid for atomic number  44.
 ***** Axes restored to original set *****
 -------------------------------------------------------------------
 Center     Atomic                   Forces (Hartrees/Bohr)
 Number     Number              X              Y              Z
 -------------------------------------------------------------------
      1        7          -0.009240599   -0.013603260   -0.018339610
      2        6           0.016184318    0.007835933    0.002250711
      3        6          -0.002141004    0.012530794    0.009029157
      4        6           0.001520036   -0.007096157   -0.000378195
      5        6           0.002572028    0.008648684    0.000056802
      6        6          -0.004262561   -0.007647213    0.001631763
      7        6          -0.003935889    0.003686602    0.000932710
      8        1           0.000074846    0.000170628   -0.000518240
      9        1          -0.000154342   -0.000071010   -0.000332430
     10        1          -0.000426380    0.000258711   -0.000122673
     11        6          -0.002156267   -0.001308786   -0.000608854
     12        7           0.000894522    0.002687928    0.000915611
     13        1           0.001069400    0.000220966    0.000051783
     14        1          -0.002313201   -0.001405850   -0.001497833
     15        1          -0.002256611    0.000521529    0.000452835
     16       15           0.017508607    0.001304493   -0.006038366
     17        1          -0.000643668    0.000241525    0.000567417
     18       44          -0.020082662   -0.033811219   -0.023244329
     19        6           0.000588841   -0.000200178   -0.002843570
     20        6          -0.000856993    0.003351817   -0.001798727
     21        6          -0.001468549    0.002694068    0.001611052
     22        6          -0.005779104    0.000519073   -0.000167004
     23        6          -0.000622812   -0.000159065    0.000199210
     24        6          -0.000300595   -0.000244921    0.002358343
     25        6          -0.000238862   -0.001986791    0.001155769
     26        6          -0.000932360   -0.000653113    0.000221264
     27        6           0.000324365    0.000514682   -0.001696974
     28        6           0.000465140    0.001700214    0.000160679
     29        1           0.001710780   -0.000416200   -0.001116661
     30        6           0.000155696    0.000469902   -0.000199968
     31        1          -0.000056921    0.001074374    0.000402028
     32        1          -0.000193421   -0.000029486    0.000422579
     33        6          -0.001220054    0.001527730   -0.000936120
     34        1           0.000781503   -0.001314737    0.000221764
     35        6           0.007832758    0.058874988    0.004575752
     36        1           0.011221255   -0.002054400   -0.001004055
     37        1          -0.001278616   -0.000341375    0.000427343
     38        1          -0.001204007   -0.000594297    0.000542938
     39        1           0.000317003   -0.000072269    0.000222911
     40        1          -0.000144198   -0.000310670   -0.000043845
     41        1           0.000299368    0.000056025   -0.000118578
     42        1           0.000753674   -0.000589638    0.000575785
     43        1           0.000879466    0.001674678    0.000536048
     44        1           0.000246533    0.000052617    0.000034366
     45        1          -0.000296561   -0.000659251   -0.000222139
     46        1          -0.001401840   -0.000068233   -0.001068413
     47        1           0.000814002   -0.000105705    0.000090607
     48        1          -0.000872249    0.000093124    0.000394707
     49        1           0.000670593   -0.000182120   -0.000166068
     50        1           0.000141321    0.000258457   -0.000299294
     51        1          -0.000417132   -0.000270259   -0.000116221
     52        1          -0.000890449    0.000271205    0.000089053
     53        1           0.000067452    0.000201629    0.000242355
     54        1           0.000157242   -0.000381443   -0.000299366
     55        1           0.001540222   -0.001008960    0.001307694
     56        1          -0.000393210    0.000065179   -0.000129678
     57        1          -0.000328293   -0.000093683   -0.000175450
     58        1           0.001237335   -0.001063671    0.001233472
     59        1           0.000453584   -0.000208177    0.000059919
     60        8          -0.009206173   -0.027699229   -0.005956487
     61        8           0.009520323   -0.007024336    0.029252836
     62        1          -0.002119068   -0.006763240    0.004760935
     63        1          -0.002167565    0.007931382    0.002450949
 -------------------------------------------------------------------
 Cartesian Forces:  Max     0.058874988 RMS     0.007173198

 GradGradGradGradGradGradGradGradGradGradGradGradGradGradGradGradGradGrad
 Berny optimization.
 FormGI is forming the generalized inverse of G from B-inverse, IUseBI=4.
 Internal  Forces:  Max     0.037082761 RMS     0.005967669
 Search for a local minimum.
 Step number   1 out of a maximum of  369
 All quantities printed in internal units (Hartrees-Bohrs-Radians)
 Mixed Optimization -- RFO/linear search
 Second derivative matrix not updated -- first step.
 ITU=  0
     Eigenvalues ---    0.00230   0.00230   0.00230   0.00337   0.00357
     Eigenvalues ---    0.00362   0.00376   0.00380   0.00396   0.00477
     Eigenvalues ---    0.00480   0.00586   0.00594   0.00619   0.00703
     Eigenvalues ---    0.00777   0.01163   0.01414   0.01609   0.01683
     Eigenvalues ---    0.01826   0.02183   0.02188   0.02190   0.02207
     Eigenvalues ---    0.02287   0.02452   0.02801   0.02923   0.03724
     Eigenvalues ---    0.03966   0.04100   0.04119   0.04168   0.04875
     Eigenvalues ---    0.04876   0.04876   0.04889   0.04939   0.05182
     Eigenvalues ---    0.05184   0.05228   0.05267   0.05290   0.05321
     Eigenvalues ---    0.05327   0.05385   0.05388   0.05406   0.05454
     Eigenvalues ---    0.05583   0.05609   0.05731   0.05734   0.05780
     Eigenvalues ---    0.05788   0.05795   0.05800   0.05816   0.05833
     Eigenvalues ---    0.06047   0.06635   0.06670   0.08078   0.08585
     Eigenvalues ---    0.09150   0.09330   0.09581   0.09971   0.10110
     Eigenvalues ---    0.11897   0.12049   0.12926   0.13272   0.13319
     Eigenvalues ---    0.13470   0.14180   0.14221   0.14570   0.14622
     Eigenvalues ---    0.15715   0.15998   0.15999   0.16000   0.16000
     Eigenvalues ---    0.16000   0.16000   0.16000   0.16000   0.16000
     Eigenvalues ---    0.16000   0.16000   0.16000   0.16000   0.16000
     Eigenvalues ---    0.16000   0.16000   0.16000   0.16000   0.16000
     Eigenvalues ---    0.16000   0.16000   0.16000   0.16000   0.16000
     Eigenvalues ---    0.16000   0.16000   0.16000   0.16000   0.16000
     Eigenvalues ---    0.16349   0.16937   0.17035   0.17993   0.19031
     Eigenvalues ---    0.19505   0.20665   0.21986   0.22005   0.22038
     Eigenvalues ---    0.22107   0.22860   0.23643   0.24061   0.24897
     Eigenvalues ---    0.24920   0.29202   0.29342   0.29376   0.29471
     Eigenvalues ---    0.29502   0.29609   0.30208   0.30896   0.30992
     Eigenvalues ---    0.32464   0.32726   0.33071   0.33222   0.33236
     Eigenvalues ---    0.33333   0.33346   0.33347   0.33361   0.33378
     Eigenvalues ---    0.33400   0.33402   0.33553   0.33567   0.33581
     Eigenvalues ---    0.33596   0.33604   0.33619   0.33624   0.33626
     Eigenvalues ---    0.33646   0.33662   0.33711   0.33718   0.33721
     Eigenvalues ---    0.33727   0.33773   0.33788   0.33855   0.33893
     Eigenvalues ---    0.34013   0.34023   0.34097   0.34230   0.34442
     Eigenvalues ---    0.34674   0.34730   0.34732   0.35177   0.42628
     Eigenvalues ---    0.43564   0.46827   0.47228   0.49490   0.53376
     Eigenvalues ---    0.53376   0.54214   1.28272
 RFO step:  Lambda=-5.91132795D-02 EMin= 2.30000000D-03
 Linear search not attempted -- first point.
 Maximum step size (   0.300) exceeded in Quadratic search.
    -- Step size scaled by   0.689
 Iteration  1 RMS(Cart)=  0.24136247 RMS(Int)=  0.00923863
 Iteration  2 RMS(Cart)=  0.06050881 RMS(Int)=  0.00060327
 Iteration  3 RMS(Cart)=  0.00160879 RMS(Int)=  0.00026516
 Iteration  4 RMS(Cart)=  0.00000151 RMS(Int)=  0.00026516
 Iteration  5 RMS(Cart)=  0.00000000 RMS(Int)=  0.00026516
 Variable       Old X    -DE/DX   Delta X   Delta X   Delta X     New X
[...]
 .00014768,0.00014545,-0.00003083,-0.00014845,-0.00020253,-0.00001373,-
 0.00001232,-0.00003999,-0.00001907,-0.00000807,-0.00000959,-0.00003707
 ,0.00003899,0.00000279,0.00064635,-0.00011046,-0.00004796,0.00007003,0
 .00030802,-0.00011812,0.00009958,0.00005914,0.00009282,-0.00004189,-0.
 00000480,0.00011040,-0.00166495,-0.00008872,0.00030563,0.00071632,-0.0
 0164848,-0.00141355,0.00003291,0.00003615,0.00054544,-0.00003436,0.005
 58863,-0.00516749,0.00008861,-0.00059613,-0.00060651,-0.00028357,-0.00
 033841,0.00035536,0.00000069,0.00003377,-0.00006133,-0.00012914,0.0003
 8745,0.00007535,-0.00136332,0.00046855,-0.00025304,-0.00009937,0.00021
 474,-0.00022642,-0.00007055,-0.00009114,-0.00025546,0.00003407,0.00000
 282,-0.00011384,-0.00001951,-0.00003117,-0.00008548,0.00006203,-0.0001
 0258,0.00004722,0.00029265,-0.00019076,-0.00014351,-0.00004889,0.00018
 975,0.00008419,-0.00016996,0.00038081,0.00028407,-0.00009487,0.0000191
 8,0.00007932,0.00001815,-0.00000157,0.00003749,0.00006201,-0.00000921,
 0.00002001,-0.00070805,-0.00162916,0.00031174,-0.00000287,0.00001472,-
 0.00002668,-0.00002689,-0.00002269,0.00000638,-0.00000646,0.00001585,-
 0.00001468,-0.00001417,-0.00006347,-0.00000253,0.00007976,0.00002454,-
 0.00006260,-0.00004923,0.00001207,0.00001316,-0.00028397,-0.00011178,-
 0.00017136,0.00021150,-0.00130247,-0.00050604,0.00019889,0.00041287,0.
 00034554,0.00006052,0.00004739,0.00004148,0.00000237,0.00001411,0.0000
 3629,-0.00005235,-0.00003758,-0.00009613,0.00003129,0.00002920,0.00003
 294,-0.00006343,0.00006696,0.00002098,-0.00006677,0.00000861,0.0001125
 2,0.00000125,-0.00000382,0.00001859,-0.00003026,0.00002054,0.00001844,
 -0.00003718,0.00004705,0.00002501,-0.00003704,0.00001087,0.00001262,0.
 00006788,0.00011684,0.00010454,-0.00003057,0.00005764,0.00002502,-0.00
 007613,0.00006289,0.00001545,-0.00002434,-0.00021390,0.00001025,-0.000
 06645,0.00013896,0.00005300,0.00012936,0.00047460,-0.00012750,0.147123
 82,0.55233542,-0.00067676,-0.00098820,-0.00226341,0.00047155,0.0001005
 5,-0.00020947,0.00024355,0.00093197,-0.00006761,0.00014911,-0.00002427
 ,0.00022757,0.00063894,0.00088107,0.00009659,-0.00050123,-0.00060379,0
 .00034235,-0.00031580,-0.00011296,-0.00012390,0.00005742,0.00007917,-0
 .00004689,-0.00001027,0.00008466,-0.00006481,-0.00013114,0.00019379,-0
 .00006197,-0.00085913,0.00066470,0.00056675,0.00037586,0.00001305,-0.0
 0033909,0.00032499,0.00016730,0.00012032,-0.00029623,-0.00027713,0.000
 23173,-0.00112538,0.00031908,-0.00073191,0.00436005,-0.00181639,-0.003
 81572,-0.00004297,0.00028496,0.00020276,-0.00387828,-0.00312592,-0.018
 63025,0.00024909,0.00084861,-0.00129691,-0.00056891,0.00132942,-0.0001
 7342,-0.00025617,0.00012947,-0.00036785,-0.00089609,0.00029509,-0.0000
 2107,-0.00046368,-0.00041996,-0.00010727,0.00011790,-0.00026797,0.0003
 4018,-0.00019058,-0.00075366,0.00022941,0.00017878,0.00007985,0.000001
 44,0.00003591,0.00010114,-0.00024980,0.00015939,-0.00007614,-0.0002312
 4,0.00068415,-0.00020041,-0.00119852,0.00013980,-0.00018833,0.00012756
 ,0.00009272,-0.00025093,-0.00009257,-0.00016327,-0.00005288,0.00055724
 ,-0.00001520,0.00006120,0.00005576,0.00043926,-0.00002082,0.00011546,0
 .00130682,0.00660564,-0.00406496,-0.00017849,0.00015912,-0.00009177,0.
 00019276,-0.00011097,0.00007641,0.00004547,-0.00001495,-0.00001188,0.0
 0027977,-0.00010028,0.00011222,-0.00004571,-0.00003027,-0.00009735,-0.
 00003224,0.00005876,0.00003875,0.00013060,-0.00012617,0.00022700,-0.00
 105164,0.00001879,-0.00030611,0.00010697,-0.00011487,-0.00032136,-0.00
 017885,-0.00014135,0.00005688,0.00010959,0.00015633,-0.00003241,0.0001
 6382,0.00009550,0.00013676,-0.00030962,0.00002893,0.00016819,0.0001676
 0,-0.00000755,-0.00001643,-0.00004378,0.00022757,0.00000605,-0.0001231
 3,-0.00008960,-0.00001540,-0.00017167,0.00003933,0.00002387,-0.0000381
 2,0.00013989,0.00009237,-0.00017602,-0.00002205,-0.00000765,0.00014651
 ,0.00016844,0.00052404,-0.00028622,0.00019306,-0.00001353,-0.00021688,
 0.00001793,-0.00001191,-0.00003325,-0.00059945,0.00019819,-0.00021670,
 0.00019188,0.00008899,-0.00136766,-0.00476551,0.00054470,0.03972611,0.
 02801457,0.41243645,0.00010063,-0.00029716,-0.00000847,0.00010189,-0.0
 0026684,0.00007825,0.00097589,0.00136475,-0.00073975,-0.00047839,0.000
 08469,-0.00000637,0.00040155,-0.00000710,-0.00015174,-0.00020271,-0.00
 009654,0.00018449,-0.00001877,-0.00018535,0.00010608,-0.00004391,-0.00
 004431,0.00004514,-0.00002632,-0.00002944,0.00000299,-0.00002312,0.000
 07902,0.00000937,-0.00006404,0.00000220,-0.00006972,-0.00002264,-0.000
 26172,-0.00047799,-0.00005330,-0.00001402,0.00005844,-0.00000999,0.000
 06857,-0.00006074,-0.00191513,0.00000991,-0.00002389,0.00026557,-0.001
 12051,-0.00082470,0.00002865,-0.00005916,0.00042022,-0.00007632,0.0009
 7799,-0.00004106,-0.00044416,0.00069995,0.00122891,-0.00009749,-0.0001
 0557,0.00015772,-0.00010472,0.00020043,-0.00008654,-0.00012125,0.00026
 427,0.00007893,-0.00063462,0.00018157,-0.00000060,-0.00001807,0.000075
 95,-0.00010000,-0.00003071,-0.00006035,-0.00010495,0.00002680,-0.00002
 464,-0.00002024,-0.00001580,-0.00001643,-0.00002848,0.00004937,-0.0000
 6444,0.00008866,-0.00087612,0.00018196,0.00083766,-0.00005798,-0.00031
 129,-0.00039955,0.00013337,-0.00005472,-0.00004140,0.00004826,-0.00001
 831,-0.00015778,0.00006476,0.00000515,-0.00000774,-0.00002971,-0.00002
 804,0.00000833,-0.00029086,-0.00056946,0.00010174,0.00002992,-0.000025
 13,0.00003993,-0.00004504,0.00005600,-0.00000852,-0.00002176,-0.000005
 57,-0.00002492,-0.00012102,0.00008007,-0.00001351,0.00000355,0.0000400
 2,0.00005978,0.00022165,-0.00001438,-0.00005027,-0.00011221,-0.0000186
 7,-0.00005066,0.00029296,-0.00063405,-0.00012890,0.00008012,0.00017874
 ,0.00007834,0.00003251,0.00003224,0.00000970,-0.00000715,-0.00000284,0
 .00001475,-0.00000768,-0.00001881,-0.00002220,0.00002558,0.00003551,0.
 00001362,-0.00000999,0.00002079,0.00001628,-0.00003310,0.00001455,0.00
 007415,0.00000239,0.00000750,0.00000382,-0.00000315,0.00000241,0.00002
 402,-0.00002564,0.00002493,0.00000146,-0.00000119,0.00000860,-0.000005
 24,-0.00001381,-0.00007596,-0.00000613,0.00001080,0.00002168,0.0000441
 1,0.00000748,0.00000995,0.00002831,-0.00001076,-0.00000435,0.00001294,
 -0.00001263,0.00005294,0.00000291,0.00007376,0.00034005,0.00001924,-0.
 03135834,-0.12079036,0.00581812,0.03592645,-0.00020923,0.00000690,0.00
 194795,-0.00005212,0.00040210,0.00030185,0.00076849,0.00006752,0.00009
 712,-0.00000341,-0.00019012,-0.00012546,-0.00044222,-0.00032249,-0.000
 00284,0.00009985,-0.00012507,-0.00039414,-0.00001679,0.00026496,-0.000
 04498,0.00000901,0.00001213,-0.00002922,0.00001050,-0.00001263,0.00001
 851,0.00004028,-0.00002292,0.00000880,0.00035898,-0.00017910,0.0000896
 5,-0.00009733,0.00007040,0.00025189,-0.00001215,-0.00001585,-0.0000386
 8,0.00006896,-0.00008208,-0.00000011,0.00009069,0.00022973,0.00016933,
 -0.00012194,0.00020838,0.00019451,-0.00001146,-0.00007066,0.00008755,-
 0.00009668,0.00032471,-0.00128406,-0.00006048,-0.00045953,-0.00046464,
 -0.00004628,-0.00003400,-0.00005050,0.00010910,-0.00014588,0.00012875,
 0.00005638,-0.00004560,-0.00003004,0.00020366,0.00015749,0.00003168,0.
 00000471,-0.00000538,0.00001632,0.00000069,0.00000862,-0.00000127,0.00
 000714,0.00000384,0.00003730,0.00000123,-0.00000855,0.00002024,-0.0000
 1567,0.00000577,0.00002188,0.00061971,0.00039453,-0.00032272,0.0000419
 1,0.00024572,0.00031052,-0.00000954,-0.00008096,-0.00006881,0.00000260
 ,0.00002234,0.00004348,-0.00004507,-0.00000810,-0.00001345,-0.00003284
 ,0.00002249,-0.00001912,0.00017828,0.00005367,0.00094646,-0.00000349,-
 0.00000491,-0.00000032,0.00002196,-0.00002308,-0.00000176,0.00001045,-
 0.00000084,0.00001896,0.00005853,-0.00001518,-0.00001179,-0.00005222,-
 0.00004723,0.00000371,-0.00017774,-0.00001661,0.00002182,0.00003768,0.
 00005544,0.00001752,-0.00039276,-0.00025744,-0.00008874,0.00007509,0.0
 0000971,0.00004397,-0.00000645,-0.00000391,-0.00000386,0.00000104,-0.0
 0000655,-0.00000216,0.00000344,-0.00000041,0.00000877,0.00000007,-0.00
 000550,-0.00000446,0.00000588,-0.00000011,0.00000665,-0.00001286,0.000
 01288,-0.00001335,-0.00000028,0.00000139,-0.00000065,0.00000919,-0.000
 00061,-0.00000445,0.00000774,-0.00000905,-0.00000882,0.00001226,-0.000
 00518,-0.00000348,-0.00002548,0.00001212,-0.00004347,0.00001552,-0.000
 01245,-0.00000483,0.00000025,-0.00000717,-0.00000219,0.00000116,0.0000
 3374,0.00001248,0.00003237,-0.00003008,-0.00001500,-0.00004537,-0.0000
 9762,-0.00026234,-0.12498437,-0.48364390,0.03499513,0.12833741,0.50223
 911,0.00001781,-0.00139063,0.00001348,0.00160034,0.00075116,-0.0004981
 3,-0.00162948,0.00150429,0.00019361,-0.00013631,-0.00023073,-0.0002612
 7,-0.00023840,0.00008669,0.00003857,0.00009952,0.00029366,-0.00018604,
 0.00008748,-0.00004194,-0.00008450,-0.00003032,-0.00006133,0.00002222,
 -0.00000656,-0.00008113,0.00004744,0.00009003,-0.00014705,0.00006313,-
 0.00010525,-0.00016341,-0.00016401,-0.00015156,0.00005318,-0.00002071,
 -0.00004409,0.00000670,0.00004136,-0.00001904,0.00001958,0.00005037,-0
 .00017657,0.00013536,0.00026813,-0.00064719,0.00008763,-0.00007991,0.0
 0009634,0.00000702,0.00003846,0.00050935,0.00181017,-0.00144963,0.0002
 5359,-0.00032354,-0.00041009,0.00005107,-0.00002618,0.00009656,0.00009
 110,-0.00003891,-0.00003800,0.00008415,-0.00000919,-0.00002668,0.00008
 400,-0.00018930,0.00007400,0.00002085,0.00000456,-0.00003940,0.0000306
 8,0.00010257,-0.00000362,0.00000160,-0.00000369,-0.00001149,-0.0000076
 6,-0.00001665,0.00004642,0.00000712,-0.00001134,0.00002038,0.00074879,
 -0.00016041,0.00016973,-0.00002316,0.00012562,0.00016814,-0.00008316,0
 .00008699,0.00004877,-0.00003038,0.00001026,-0.00001144,0.00000006,0.0
 0000255,0.00001791,-0.00004334,-0.00000762,0.00002150,-0.00034438,-0.0
 0134416,0.00058562,0.00001772,-0.00001766,0.00000428,-0.00001111,0.000
 00250,-0.00001603,-0.00001555,0.00001439,0.00001379,-0.00005148,0.0000
 4394,-0.00002461,-0.00001305,-0.00002106,0.00002500,-0.00009973,-0.000
 00989,-0.00000717,-0.00001069,0.00004712,-0.00004698,-0.00024408,0.000
 09695,-0.00010184,0.00002787,0.00006273,0.00000631,0.00002379,0.000028
 54,-0.00000484,-0.00002203,-0.00001281,-0.00001882,0.00000283,-0.00000
 496,0.00000780,0.00004056,0.00000838,-0.00002054,-0.00000895,-0.000015
 16,-0.00000208,-0.00001883,-0.00002990,0.00001270,0.00001177,0.0000145
 1,-0.00000020,0.00002586,-0.00001078,0.00001308,-0.00000663,-0.0000071
 1,-0.00000958,0.00000659,0.00000796,-0.00000108,0.00000032,-0.00000276
 ,-0.00006518,0.00002967,-0.00001967,0.00001778,0.00001151,0.00000890,0
 .00002288,0.00000650,-0.00001761,-0.00005600,-0.00001369,0.00001840,0.
 00000561,0.00021280,0.00073389,-0.00007165,0.01964216,0.08663735,-0.04
 762258,-0.00862859,-0.04525251,0.04749692,-0.00033315,0.00131107,-0.00
 068960,-0.00039781,-0.00062348,0.00016167,0.00093741,0.00014220,-0.000
 32173,-0.00013145,0.00021627,0.00017840,0.00008069,-0.00020934,-0.0001
 6073,-0.00014661,-0.00009110,0.00012344,-0.00003122,-0.00002620,0.0000
 8618,-0.00001035,-0.00001985,0.00001696,-0.00001724,-0.00000267,-0.000
 00229,0.00001308,0.00000879,0.00000565,-0.00025658,0.00011559,-0.00006
 392,0.00072169,0.00001990,-0.00042182,-0.00006986,-0.00001872,-0.00002
 616,0.00002120,0.00019693,-0.00015146,-0.00043839,0.00079532,0.0003358
 6,0.00130728,0.00066011,-0.00371396,-0.00001345,-0.00014837,0.00015530
 ,-0.00512684,-0.00156339,0.00824446,-0.00069130,0.00024284,0.00143004,
 0.00012917,0.00023798,-0.00024883,-0.00015003,0.00013105,-0.00008558,-
 0.00055271,0.00008855,-0.00013372,-0.00053430,-0.00053076,-0.00078563,
 0.00012041,-0.00022512,0.00010473,0.00002370,-0.00001105,0.00016176,0.
 00002659,0.00001932,0.00004515,-0.00000778,0.00005229,-0.00010909,-0.0
 0001158,0.00003782,-0.00004557,-0.00146096,-0.00126302,0.00003271,-0.0
 0023937,-0.00016103,-0.00072233,-0.00053045,0.00058343,0.00041729,0.00
 021342,-0.00011217,-0.00028449,0.00006556,-0.00003208,-0.00003459,-0.0
 0005780,-0.00001730,-0.00002981,-0.00106869,0.00003318,-0.00145834,0.0
 0002555,-0.00002390,-0.00004220,-0.00010076,0.00007709,-0.00001496,-0.
 00004085,-0.00000156,-0.00003769,-0.00013292,0.00000790,-0.00002340,0.
 00015739,0.00008504,-0.00000070,0.00031070,-0.00000316,-0.00003579,0.0
 0052988,0.00022516,0.00035888,-0.00143392,0.00006390,0.00156184,-0.000
 11786,-0.00063795,-0.00006589,-0.00002788,-0.00001618,-0.00001358,-0.0
 0001050,0.00001691,-0.00001224,0.00010481,0.00003901,0.00010572,-0.000
 00347,0.00003053,-0.00001233,0.00010840,-0.00005866,-0.00000539,0.0000
 0621,0.00002556,0.00001234,-0.00003928,-0.00001087,-0.00002113,-0.0000
 6456,0.00000201,0.00005012,-0.00001429,0.00003990,0.00000704,-0.000038
 32,-0.00001021,-0.00003808,0.00000193,0.00002479,0.00013126,-0.0000367
 8,0.00001598,0.00004336,-0.00004658,-0.00001916,0.00003730,-0.00009687
 ,-0.00007647,0.00003750,-0.00001607,0.00003021,-0.00000753,0.00023925,
 0.00039961,0.00051218,-0.02068151,-0.02414043,-0.04205155,-0.00146429,
 -0.00432802,-0.01107259,0.03150029,0.00072927,0.00269765,0.00049705,-0
 .00150286,-0.00038195,0.00034040,0.00069471,-0.00186003,-0.00020865,0.
 00025250,0.00021043,0.00005086,-0.00020779,-0.00038972,-0.00009415,0.0
 0018471,0.00030680,0.00011578,0.00013164,-0.00003733,0.00014506,0.0000
 1668,0.00003120,0.00004590,0.00001105,0.00002592,-0.00000157,0.0000088
 4,0.00003263,0.00001122,0.00012096,-0.00020104,0.00002287,-0.00004407,
 -0.00029638,0.00001807,-0.00006121,-0.00004896,-0.00009306,0.00005935,
 0.00002835,-0.00009195,0.00091212,-0.00048226,-0.00023234,-0.00088307,
 0.00057172,0.00136390,-0.00003759,-0.00006572,-0.00027138,-0.00011730,
 -0.00995043,0.00744060,0.00014937,0.00073913,0.00039949,0.00019336,-0.
 00015439,-0.00039031,-0.00004671,0.00002211,-0.00010177,0.00014304,-0.
 00024736,0.00000114,-0.00051337,0.00019201,0.00057486,-0.00001871,-0.0
 0008656,0.00004782,0.00011556,0.00004029,0.00017062,-0.00004567,-0.000
 04241,0.00010090,0.00001664,0.00003749,0.00008804,-0.00001818,0.000041
 81,-0.00008547,-0.00039943,-0.00003535,-0.00003267,-0.00000743,-0.0002
 4697,-0.00017578,0.00036935,-0.00022308,-0.00022627,0.00001118,-0.0000
 4709,-0.00000492,-0.00000797,0.00001720,0.00002089,-0.00000264,-0.0000
 0168,0.00001674,0.00088903,0.00302894,-0.00298809,-0.00001505,0.000016
 65,0.00000337,0.00002733,0.00001844,-0.00000304,0.00000508,-0.00001188
 ,0.00000782,-0.00002213,0.00003079,0.00000958,-0.00003592,0.00000328,0
 .00002533,0.00009905,0.00000604,-0.00002013,0.00016376,-0.00015519,-0.
 00006151,-0.00009389,0.00054925,0.00024740,-0.00055263,-0.00086064,-0.
 00033932,-0.00001942,-0.00001034,-0.00001823,0.00001107,-0.00001083,-0
 .00001388,0.00001217,0.00000209,0.00001370,0.00000148,-0.00001205,-0.0
 0002351,0.00004403,-0.00005044,-0.00002125,0.00000181,-0.00003163,-0.0
 0004184,0.00001520,0.00000587,-0.00001316,0.00003794,-0.00002070,-0.00
 001131,0.00001013,-0.00002513,-0.00001200,0.00003500,0.00000059,0.0000
 0347,-0.00003506,-0.00010547,-0.00000764,-0.00001526,-0.00001016,-0.00
 000428,0.00010648,-0.00005949,-0.00000820,0.00000759,0.00016316,-0.000
 12929,0.00006480,-0.00006929,-0.00003090,-0.00017963,-0.00085808,0.000
 89836,-0.02094091,-0.07004178,-0.06237318,-0.00823433,-0.01886893,-0.0
 4314449,0.02840594,0.09718090,0.00078046,0.00573408,-0.00153016,-0.001
 59188,-0.00094155,0.00061133,0.00047504,-0.00236805,-0.00020899,0.0000
 8195,0.00026758,0.00011233,-0.00079801,-0.00117741,-0.00018800,0.00083
 055,0.00072675,-0.00005794,0.00014105,-0.00008228,0.00030507,-0.000054
 21,-0.00006745,0.00005849,0.00000957,-0.00001423,0.00001767,0.00007467
 ,-0.00009973,-0.00002398,0.00029688,-0.00005511,-0.00031837,-0.0000307
 8,-0.00015885,-0.00002209,-0.00035351,-0.00016286,-0.00012063,0.000120
 29,0.00035146,-0.00034201,0.00151677,-0.00064719,-0.00014227,-0.005821
 64,0.00238542,0.00290953,0.00005357,-0.00033592,-0.00049959,0.00375162
 ,0.00035847,0.01076846,0.00093395,0.00030024,0.00176158,0.00061708,-0.
 00152953,0.00021295,-0.00004400,0.00001813,0.00018170,0.00090348,-0.00
 030427,0.00003791,-0.00009249,0.00066104,0.00099664,-0.00021229,0.0003
 6944,-0.00041705,0.00021593,0.00074305,-0.00035946,-0.00015752,-0.0000
 8773,-0.00001457,-0.00002803,-0.00007963,0.00024095,-0.00010691,0.0001
 0609,0.00018490,-0.00068357,-0.00101528,0.00060858,-0.00036813,-0.0001
 7646,-0.00082353,-0.00020369,0.00049449,0.00024996,0.00027298,-0.00004
 055,-0.00058706,0.00003008,-0.00004458,-0.00002921,-0.00037930,0.00001
 517,-0.00008253,-0.00153754,-0.00613838,0.00180160,0.00017586,-0.00013
 549,0.00007523,-0.00022349,0.00014020,-0.00006132,-0.00005328,0.000009
 58,-0.00002152,-0.00028344,0.00007411,-0.00008012,0.00012804,0.0001051
 4,0.00007260,0.00035217,-0.00004345,-0.00005719,-0.00038462,-0.0001665
 1,-0.00058785,0.00216472,-0.00030355,-0.00062709,0.00010762,0.00030615
 ,0.00060728,0.00019661,0.00014996,-0.00003286,-0.00009707,-0.00013897,
 0.00005068,-0.00019680,-0.00011021,-0.00020401,0.00031329,-0.00007125,
 -0.00017251,-0.00020442,0.00004195,0.00003255,0.00006265,-0.00020696,-
 0.00003110,0.00013180,0.00007960,0.00001843,0.00015930,-0.00003653,-0.
 00003050,0.00004663,-0.00013936,-0.00008024,0.00016741,0.00003301,0.00
 001830,-0.00011394,-0.00018527,-0.00041695,0.00027129,-0.00018173,0.00
 001658,0.00025156,-0.00002605,0.00001105,-0.00000768,0.00059338,-0.000
 21561,0.00018980,-0.00022322,-0.00011830,0.00151209,0.00467745,0.00001
 734,-0.05451830,-0.10860215,-0.33523896,0.00262223,0.00876144,0.001702
 16,0.04858757,0.09859432,0.32006171\\-0.00000049,-0.00001470,-0.000020
 35,0.00000596,0.00001137,0.00000306,0.00000405,0.00000519,-0.00000179,
 -0.00000181,-0.00000534,0.00000123,-0.00000128,0.00000766,0.00000419,-
 0.00000619,-0.00000188,0.00000316,-0.00000747,0.00000489,0.00000248,-0
 .00000079,-0.00000056,0.00000089,-0.00000242,0.00000058,0.00000229,-0.
 00000209,-0.00000069,0.00000042,0.00000031,-0.00000186,0.00000465,0.00
 000509,-0.00000618,0.00000259,-0.00000308,-0.00000015,0.00000466,-0.00
 000116,-0.00000071,-0.00000012,-0.00000357,-0.00000073,-0.00000014,0.0
 0000673,-0.00000510,-0.00000319,-0.00000158,-0.00000142,-0.00000261,-0
 .00000641,-0.00000563,0.00001244,0.00000118,0.00000168,-0.00000520,-0.
 00000712,-0.00000031,-0.00000019,-0.00000369,-0.00000025,0.00000777,0.
 00000374,-0.00000146,-0.00000026,-0.00001197,-0.00000105,-0.00000018,-
 0.00000116,0.00000299,-0.00000660,0.00000410,-0.00000064,-0.00000279,0
 .00000095,0.00000058,-0.00000058,0.00000082,0.00000226,-0.00000237,0.0
 0000043,0.00000098,-0.00000079,0.00000262,-0.00000116,0.00000012,0.000
 00183,0.00000204,0.00000821,0.00000074,-0.00000058,0.00000177,0.000003
 99,0.00000304,0.00000083,0.00000056,-0.00000154,0.00000185,0.00000091,
 -0.00000009,0.00000334,-0.00000328,0.00001466,0.00000190,0.00000411,0.
 00000252,0.00000091,0.00000192,0.00000184,0.00000161,0.00000107,-0.000
 00065,0.00000178,0.00000081,0.00000221,0.00000327,-0.00000040,-0.00000
 006,0.00000336,-0.00000238,-0.00000091,0.00000435,0.00000106,-0.000000
 92,-0.00000417,0.00000318,-0.00000002,-0.00000088,0.00000380,-0.000000
 10,-0.00000101,-0.00000090,-0.00000112,-0.00000342,0.00000099,0.000000
 06,-0.00000116,0.00000106,-0.00000181,-0.00000335,-0.00000025,-0.00000
 205,-0.00000130,-0.00000142,-0.00000385,-0.00000424,-0.00000377,-0.000
 00011,-0.00000210,-0.00000002,-0.00000095,-0.00000306,0.00000098,-0.00
 000069,-0.00000250,-0.00000058,-0.00000115,-0.00000208,0.00000303,-0.0
 0000229,-0.00000215,0.00000370,-0.00000088,-0.00000038,0.00000174,0.00
 000054,-0.00000105,0.00000173,0.00000003,-0.00000103,0.00000180,-0.000
 00011,-0.00000072,0.00000049,0.00000056,-0.00000223,0.00000775,0.00000
 393,0.00000195,-0.00001856,-0.00000629,-0.00003390,0.00000034,-0.00000
 165,0.00001680,0.00001026,0.00000804,0.00001601\\\@


 The lyf so short, the craft so long to lerne.
                             -- Chaucer
 Job cpu time:       0 days 20 hours 10 minutes 38.8 seconds.
 Elapsed time:       0 days  1 hours  0 minutes 36.3 seconds.
 File lengths (MBytes):  RWF=   2077 Int=      0 D2E=      0 Chk=     30 Scr=      1
 Normal termination of Gaussian 16 at Tue May  5 02:02:37 2020.
