2
	Energy:  -94269.2503844
O          0.00000        0.00000        0.59806
O          0.00000        0.00000       -0.59806
