*****************************************************************************************
*** WorkDir at /tmp/molcas_calculations/GMe-Cis-CI12-D0-VDZ-SA-CAS1311-Pi-PCM cleaned ***
*****************************************************************************************
   This run of MOLCAS is using the pymolcas driver

                             OPE
                             OPE          NMOL  CASOP  ENMOLC A   SO
                 OPE        NMOLC        AS  OP EN  MO LC     AS  OP
                OPENM       OL CA        SO  PE NM  OL CA     SOP EN
                OP EN      MO   LC       AS  OP ENMOL  CASO   PENMOL
                OP  EN     MO   LC       AS  OP EN     MO     LC ASO
               OP   E  NMOL  C  AS       OP  EN MO     LC     AS  OP
               OP  E   NMO   LC AS        OPEN  MO     LCASOP EN   M
               O  PEN   MO  LCA  SO
            OPE   NMO   L   CAS    OP
        OPENMOL  CASOP     ENMOL   CASOPE
     OPENMOLCA   SOPENMOLCASOPEN   MOLCASOPE
    OPENMOLCAS   OP           EN   MOL    CAS
    OPENMOLCAS       OP  ENM        O     LCA
    OPENMOLCAS    OPEN  MOLCASO     P  E  NMO
    OPENMOLCAS     OP               E  N  MOL
    OPENMOLCA   SO           PENM   O  L  CAS    OPEN    MO    LCAS
    OPENMOLCA   SOP           ENM   O  L  CAS   OP  EN  MOLC  AS   O
    OPENMOLCA   SOPE           NM      O  LCA   S      OP  EN MO
    OPENMOLC                AS         O  PEN   M      OL  CA  SOPE
    OPENMO        LCASOPE  NMOL        C  ASO   P      ENMOLC     AS
    OPE     NMO      LCA  SO     P     E   NM   OL  CA SO  PE N   MO
          OPENMOLCA            SOPE   NMO        LCAS  O    P  ENMO
     OPENMOLCASOPENMOLCASOPENMOLCASOPENMOLCA
        OPENMOLCASOPENMOLCASOPENMOLCASOPE
            OPENMOLCASOPENMOLCASOPENM
               OPENMOLCASOPENMOLCA        version: 19.11
                   OPENMOLCASO
                       OPE                tag: 1008-ga5e89a9f

 OpenMolcas is free software; you can redistribute it and/or modify it
 under the terms of the GNU Lesser General Public License version 2.1.
 OpenMolcas is distributed in the hope that it will be useful, but it
 is provided "as is" and without any express or implied warranties.
 For more details see the full text of the license in the file
 LICENSE or in <http://www.gnu.org/licenses/>.

                 Copyright (C) The OpenMolcas Authors
           For the author list and the recommended citation,
                   consult the file CONTRIBUTORS.md

           *************************************************
           * pymolcas version py2.08                       *
           *   build bed633bbe89b7744c23cdbfc3f64969c      *
           *   (after the EMIL interpreter by V. Veryazov) *
           *************************************************

configuration info
------------------
C Compiler ID: GNU
C flags: -std=gnu99 -fopenmp
Fortran Compiler ID: GNU
Fortran flags: -fno-aggressive-loop-optimizations -cpp -fdefault-integer-8 -fopenmp
Definitions: _MOLCAS_;_I8_;_LINUX_;_OPENBLAS_;_FDE_
Parallel: OFF (GA=OFF)


   -------------------------------------------------------------------------------------
  |
  |              Project: GMe-Cis-CI12-D0-VDZ-SA-CAS1311-Pi-PCM
  |       Submitted from: /home/ubuntu/newcas/build/calc/200723
  |         Scratch area: /tmp/molcas_calculations/GMe-Cis-CI12-D0-VDZ-SA-CAS1311-Pi-PCM
  |      Save outputs to: /home/ubuntu/newcas/build/calc/200723
  |               Molcas: /home/ubuntu/newcas/build
  |
  | Scratch area is empty
  |
  |       MOLCAS_DRIVER = /usr/local/sbin/pymolcas
  |          MOLCAS_FIM = 1
  | MOLCAS_KEEP_WORKDIR = NO
  |       MOLCAS_LINALG = /home/ubuntu/newcas/OpenBLAS_install/openblas-lapack-ilp64
  |      MOLCAS_MAXITER = 200
  |       MOLCAS_MAXMEM = 30000
  |  MOLCAS_NEW_WORKDIR = YES
  |       MOLCAS_NPROCS = 1
  |        MOLCAS_PRINT = VERBOSE
  |       MOLCAS_SOURCE = /home/ubuntu/newcas/OpenMolcas
  |    MOLCAS_STRUCTURE = 0
  |
   -------------------------------------------------------------------------------------

++ ---------   Input file   ---------

&GATEWAY
        Title = GMe-Cis-CI12-D0-VDZ-SA-CAS1311-Pi-PCM
        coord = GMe-Cis-CI23Short-D0-VDZ-SA-CAS1311-Pi-CI12-CI23-Guess-Opt.Opt.xyz
        basis = ANO-RCC-VDZ
        group = c1
        RICD
        RF-input
                PCM-model
                solvent = water
                Conductor version
        End of RF-input

&SEWARD

&RASSCF
        Fileorb = GMe-Cis-CI23Short-D0-VDZ-SA-CAS1311-Pi-CI12-CI23-Guess-Opt.RasOrb
        Spin = 2
        Charge = 0
        Nactel = 13 0 0
        Ras2 = 11
        CiRoot = 5 5 1
        RFRoot = 1
        TDM

&RASSCF
        JOBIPH
        Spin = 2
        Charge = 0
        Nactel = 13 0 0
        Ras2 = 11
        CiRoot = 5 5 1
        RFRoot = 2
        TDM

-- ----------------------------------

--- Start Module: gateway at Thu Jul 23 15:10:20 2020 ---

()()()()()()()()()()()()()()()()()()()()()()()()()()()()()()()()()()()()()()()()()()()()()()()()()()

                                              &GATEWAY

                                   only a single process is used
                       available to each process: 20 GB of memory, 16 threads
                                             pid: 30786
()()()()()()()()()()()()()()()()()()()()()()()()()()()()()()()()()()()()()()()()()()()()()()()()()()



 Basis Set     1 Label: O.ANO-RCC-VDZ
 Basis set is read from library:basis_library 
 Basis Set Reference(s):
     B. O. Roos, R. Lindh, P.-A. Malmqvist, V. Veryazov, and P.-O. Widmark,          
     J. Phys. Chem. A 108, 2851 (2004)                                               




 Basis Set     2 Label: C.ANO-RCC-VDZ
 Basis set is read from library:basis_library 
 Basis Set Reference(s):
     B. O. Roos, R. Lindh, P.-A. Malmqvist, V. Veryazov, and P.-O. Widmark,          
     J. Phys. Chem. A 108, 2851 (2004)                                               




 Basis Set     3 Label: H.ANO-RCC-VDZ
 Basis set is read from library:basis_library 
 Basis Set Reference(s):
     P.-O. Widmark, P.-A. Malmqvist, and B. O. Roos                                  
     Theor. Chim. Acta 77, 291 (1990)                                                




 Basis Set     4 Label: N.ANO-RCC-VDZ
 Basis set is read from library:basis_library 
 Basis Set Reference(s):
     B. O. Roos, R. Lindh, P.-A. Malmqvist, V. Veryazov, and P.-O. Widmark,          
     J. Phys. Chem. A 108, 2851 (2004)                                               




 Basis Set     5 Label: C.ANO-RCC-VDZ
 Basis set is read from library:basis_library 
 Basis Set Reference(s):
     B. O. Roos, R. Lindh, P.-A. Malmqvist, V. Veryazov, and P.-O. Widmark,          
     J. Phys. Chem. A 108, 2851 (2004)                                               




 Basis Set     6 Label: P.ANO-RCC-VDZ
 Basis set is read from library:basis_library 
 Basis Set Reference(s):
     B. O. Roos, R. Lindh, P.-A. Malmqvist, V. Veryazov, and P.-O. Widmark,          
     J. Phys. Chem. A 108, 2851 (2004)                                               




 Basis Set     7 Label: H.ANO-RCC-VDZ
 Basis set is read from library:basis_library 
 Basis Set Reference(s):
     P.-O. Widmark, P.-A. Malmqvist, and B. O. Roos                                  
     Theor. Chim. Acta 77, 291 (1990)                                                




 Basis Set     8 Label: C.ANO-RCC-VDZ
 Basis set is read from library:basis_library 
 Basis Set Reference(s):
     B. O. Roos, R. Lindh, P.-A. Malmqvist, V. Veryazov, and P.-O. Widmark,          
     J. Phys. Chem. A 108, 2851 (2004)                                               




 Basis Set     9 Label: N.ANO-RCC-VDZ
 Basis set is read from library:basis_library 
 Basis Set Reference(s):
     B. O. Roos, R. Lindh, P.-A. Malmqvist, V. Veryazov, and P.-O. Widmark,          
     J. Phys. Chem. A 108, 2851 (2004)                                               




 Basis Set    10 Label: C.ANO-RCC-VDZ
 Basis set is read from library:basis_library 
 Basis Set Reference(s):
     B. O. Roos, R. Lindh, P.-A. Malmqvist, V. Veryazov, and P.-O. Widmark,          
     J. Phys. Chem. A 108, 2851 (2004)                                               




 Basis Set    11 Label: H.ANO-RCC-VDZ
 Basis set is read from library:basis_library 
 Basis Set Reference(s):
     P.-O. Widmark, P.-A. Malmqvist, and B. O. Roos                                  
     Theor. Chim. Acta 77, 291 (1990)                                                




 Basis Set    12 Label: C.ANO-RCC-VDZ
 Basis set is read from library:basis_library 
 Basis Set Reference(s):
     B. O. Roos, R. Lindh, P.-A. Malmqvist, V. Veryazov, and P.-O. Widmark,          
     J. Phys. Chem. A 108, 2851 (2004)                                               




 Basis Set    13 Label: H.ANO-RCC-VDZ
 Basis set is read from library:basis_library 
 Basis Set Reference(s):
     P.-O. Widmark, P.-A. Malmqvist, and B. O. Roos                                  
     Theor. Chim. Acta 77, 291 (1990)                                                




 Basis Set    14 Label: O.ANO-RCC-VDZ
 Basis set is read from library:basis_library 
 Basis Set Reference(s):
     B. O. Roos, R. Lindh, P.-A. Malmqvist, V. Veryazov, and P.-O. Widmark,          
     J. Phys. Chem. A 108, 2851 (2004)                                               




 Basis Set    15 Label: H.ANO-RCC-VDZ
 Basis set is read from library:basis_library 
 Basis Set Reference(s):
     P.-O. Widmark, P.-A. Malmqvist, and B. O. Roos                                  
     Theor. Chim. Acta 77, 291 (1990)                                                




 Basis Set    16 Label: RU.ANO-RCC-VDZ
 Basis set is read from library:basis_library 
 Basis Set Reference(s):
     B. O. Roos, R. Lindh and P.-A. Malmqvist, V. Veryazov and P.-O. Widmark         
     J. Phys. Chem. A, 109. 6575-6579 (2005).                                        




 Basis Set    17 Label: H.ANO-RCC-VDZ
 Basis set is read from library:basis_library 
 Basis Set Reference(s):
     P.-O. Widmark, P.-A. Malmqvist, and B. O. Roos                                  
     Theor. Chim. Acta 77, 291 (1990)                                                




 Basis Set    19 Label: O.ANO-RCC-VDZ....acCD-aux-basis.
 On-the-fly basis set generation


 Basis Set    20 Label: C.ANO-RCC-VDZ....acCD-aux-basis.
 On-the-fly basis set generation


 Basis Set    21 Label: H.ANO-RCC-VDZ....acCD-aux-basis.
 On-the-fly basis set generation


 Basis Set    22 Label: N.ANO-RCC-VDZ....acCD-aux-basis.
 On-the-fly basis set generation


 Basis Set    23 Label: C.ANO-RCC-VDZ....acCD-aux-basis.
 On-the-fly basis set generation


 Basis Set    24 Label: P.ANO-RCC-VDZ....acCD-aux-basis.
 On-the-fly basis set generation


 Basis Set    25 Label: H.ANO-RCC-VDZ....acCD-aux-basis.
 On-the-fly basis set generation


 Basis Set    26 Label: C.ANO-RCC-VDZ....acCD-aux-basis.
 On-the-fly basis set generation


 Basis Set    27 Label: N.ANO-RCC-VDZ....acCD-aux-basis.
 On-the-fly basis set generation


 Basis Set    28 Label: C.ANO-RCC-VDZ....acCD-aux-basis.
 On-the-fly basis set generation


 Basis Set    29 Label: H.ANO-RCC-VDZ....acCD-aux-basis.
 On-the-fly basis set generation


 Basis Set    30 Label: C.ANO-RCC-VDZ....acCD-aux-basis.
 On-the-fly basis set generation


 Basis Set    31 Label: H.ANO-RCC-VDZ....acCD-aux-basis.
 On-the-fly basis set generation


 Basis Set    32 Label: O.ANO-RCC-VDZ....acCD-aux-basis.
 On-the-fly basis set generation


 Basis Set    33 Label: H.ANO-RCC-VDZ....acCD-aux-basis.
 On-the-fly basis set generation


 Basis Set    34 Label: RU.ANO-RCC-VDZ....acCD-aux-basis.
 On-the-fly basis set generation


 Basis Set    35 Label: RU.ANO-RCC-VDZ....acCD-aux-basis.
 On-the-fly basis set generation


 Basis Set    36 Label: H.ANO-RCC-VDZ....acCD-aux-basis.
 On-the-fly basis set generation

               ****************************************************************************************
               *                                                                                      *
               *                        GMe-Cis-CI12-D0-VDZ-SA-CAS1311-Pi-PCM                         *
               *                                                                                      *
               ****************************************************************************************

  Weights used for alignment and distance                     
  mat. size =    39x    1
       15.9949146195700003
       15.9949146195700003
       12.0000000000000000
        1.0078250322300000
       14.0030740044299993
       12.0000000000000000
       12.0000000000000000
       12.0000000000000000
       30.9737619984199988
        1.0078250322300000
       12.0000000000000000
       12.0000000000000000
       12.0000000000000000
       14.0030740044299993
       12.0000000000000000
       12.0000000000000000
       12.0000000000000000
        1.0078250322300000
        1.0078250322300000
        1.0078250322300000
       12.0000000000000000
       12.0000000000000000
        1.0078250322300000
        1.0078250322300000
       15.9949146195700003
        1.0078250322300000
        1.0078250322300000
        1.0078250322300000
        1.0078250322300000
        1.0078250322300000
        1.0078250322300000
        1.0078250322300000
        1.0078250322300000
        1.0078250322300000
        1.0078250322300000
        1.0078250322300000
        1.0078250322300000
      101.9043441000000030
        1.0078250322300000


++    Symmetry information:
      ---------------------

                    Character Table for C1 

                             E  
                    a        1  x, y, xy, Rz, z, xz, Ry, yz, Rx, I
--


++    Basis set information:
      ----------------------


      Basis set label: O.ANO-RCC...3S2P.

      Electronic valence basis set:
      ------------------
      Associated Effective Charge   8.000000 au
      Associated Actual Charge      8.000000 au
      Nuclear Model: Point charge

      Shell  nPrim  nBasis  Cartesian Spherical Contaminant
         s      14       3        X                  
         p       9       2        X                  

       Label   Cartesian Coordinates / Bohr

 O1                -0.6597940781       -4.4646316609       -4.5002722357
 O2                 0.2208269132       -1.5533368087       -3.8472393143


      Basis set label: C.ANO-RCC...3S2P.

      Electronic valence basis set:
      ------------------
      Associated Effective Charge   6.000000 au
      Associated Actual Charge      6.000000 au
      Nuclear Model: Point charge

      Shell  nPrim  nBasis  Cartesian Spherical Contaminant
         s      14       3        X                  
         p       9       2        X                  

       Label   Cartesian Coordinates / Bohr

 C3                 4.6481993164       -4.7010772171       -1.1280176805


      Basis set label: H.ANO-RCC...2S.

      Electronic valence basis set:
      ------------------
      Associated Effective Charge   1.000000 au
      Associated Actual Charge      1.000000 au
      Nuclear Model: Point charge

      Shell  nPrim  nBasis  Cartesian Spherical Contaminant
         s       8       2        X                  

       Label   Cartesian Coordinates / Bohr

 H4                 4.6857984980       -0.4309521372       -3.0822442395


      Basis set label: N.ANO-RCC...3S2P.

      Electronic valence basis set:
      ------------------
      Associated Effective Charge   7.000000 au
      Associated Actual Charge      7.000000 au
      Nuclear Model: Point charge

      Shell  nPrim  nBasis  Cartesian Spherical Contaminant
         s      14       3        X                  
         p       9       2        X                  

       Label   Cartesian Coordinates / Bohr

 N5                 3.9755969582       -2.3665405732        0.2693983548


      Basis set label: C.ANO-RCC...3S2P.

      Electronic valence basis set:
      ------------------
      Associated Effective Charge   6.000000 au
      Associated Actual Charge      6.000000 au
      Nuclear Model: Point charge

      Shell  nPrim  nBasis  Cartesian Spherical Contaminant
         s      14       3        X                  
         p       9       2        X                  

       Label   Cartesian Coordinates / Bohr

 C6                 4.9677234882       -0.1140170793       -1.0781996621
 C7                -5.5858895642        1.4199275111       -3.3829676205
 C8                -7.2791355913       -0.0515925468        1.7002685329


      Basis set label: P.ANO-RCC...4S3P.

      Electronic valence basis set:
      ------------------
      Associated Effective Charge  15.000000 au
      Associated Actual Charge     15.000000 au
      Nuclear Model: Point charge

      Shell  nPrim  nBasis  Cartesian Spherical Contaminant
         s      17       4        X                  
         p      12       3        X                  

       Label   Cartesian Coordinates / Bohr

 P9                -4.3614109460        0.5160499250       -0.2007254050


      Basis set label: H.ANO-RCC...2S.

      Electronic valence basis set:
      ------------------
      Associated Effective Charge   1.000000 au
      Associated Actual Charge      1.000000 au
      Nuclear Model: Point charge

      Shell  nPrim  nBasis  Cartesian Spherical Contaminant
         s       8       2        X                  

       Label   Cartesian Coordinates / Bohr

 H10                6.9789450564        0.1165394479       -0.7140136843


      Basis set label: C.ANO-RCC...3S2P.

      Electronic valence basis set:
      ------------------
      Associated Effective Charge   6.000000 au
      Associated Actual Charge      6.000000 au
      Nuclear Model: Point charge

      Shell  nPrim  nBasis  Cartesian Spherical Contaminant
         s      14       3        X                  
         p       9       2        X                  

       Label   Cartesian Coordinates / Bohr

 C11                4.9669675221       -2.4749814108        2.8840994067
 C12               -0.7840505816       -1.9751265710        4.1453927244
 C13                3.5665349927        2.2779454503       -0.3830398888


      Basis set label: N.ANO-RCC...3S2P.

      Electronic valence basis set:
      ------------------
      Associated Effective Charge   7.000000 au
      Associated Actual Charge      7.000000 au
      Nuclear Model: Point charge

      Shell  nPrim  nBasis  Cartesian Spherical Contaminant
         s      14       3        X                  
         p       9       2        X                  

       Label   Cartesian Coordinates / Bohr

 N14                1.0947922323        2.0285251479        0.1203117003


      Basis set label: C.ANO-RCC...3S2P.

      Electronic valence basis set:
      ------------------
      Associated Effective Charge   6.000000 au
      Associated Actual Charge      6.000000 au
      Nuclear Model: Point charge

      Shell  nPrim  nBasis  Cartesian Spherical Contaminant
         s      14       3        X                  
         p       9       2        X                  

       Label   Cartesian Coordinates / Bohr

 C15               -3.1448423434        3.5898050046        1.1876756161
 C16               -0.3959629509        4.0552667344        0.5675315070
 C17                4.6840373110        4.6594725343       -0.4201974980


      Basis set label: H.ANO-RCC...2S.

      Electronic valence basis set:
      ------------------
      Associated Effective Charge   1.000000 au
      Associated Actual Charge      1.000000 au
      Nuclear Model: Point charge

      Shell  nPrim  nBasis  Cartesian Spherical Contaminant
         s       8       2        X                  

       Label   Cartesian Coordinates / Bohr

 H18                6.6703160629        4.8350357636       -0.8070447124
 H19               -3.3218514210        3.3825297899        3.2269483546
 H20               -4.2866651535        5.1902265884        0.6053352325


      Basis set label: C.ANO-RCC...3S2P.

      Electronic valence basis set:
      ------------------
      Associated Effective Charge   6.000000 au
      Associated Actual Charge      6.000000 au
      Nuclear Model: Point charge

      Shell  nPrim  nBasis  Cartesian Spherical Contaminant
         s      14       3        X                  
         p       9       2        X                  

       Label   Cartesian Coordinates / Bohr

 C21                0.6439968558        6.4650977206        0.5055246796
 C22                3.2164271532        6.7564422585        0.0190435827


      Basis set label: H.ANO-RCC...2S.

      Electronic valence basis set:
      ------------------
      Associated Effective Charge   1.000000 au
      Associated Actual Charge      1.000000 au
      Nuclear Model: Point charge

      Shell  nPrim  nBasis  Cartesian Spherical Contaminant
         s       8       2        X                  

       Label   Cartesian Coordinates / Bohr

 H23               -0.5356517706        8.0810668938        0.8512081222
 H24                4.0422508678        8.6150579732       -0.0110654803


      Basis set label: O.ANO-RCC...3S2P.

      Electronic valence basis set:
      ------------------
      Associated Effective Charge   8.000000 au
      Associated Actual Charge      8.000000 au
      Nuclear Model: Point charge

      Shell  nPrim  nBasis  Cartesian Spherical Contaminant
         s      14       3        X                  
         p       9       2        X                  

       Label   Cartesian Coordinates / Bohr

 O25               -1.3806615722       -3.2996634285        5.9158947239


      Basis set label: H.ANO-RCC...2S.

      Electronic valence basis set:
      ------------------
      Associated Effective Charge   1.000000 au
      Associated Actual Charge      1.000000 au
      Nuclear Model: Point charge

      Shell  nPrim  nBasis  Cartesian Spherical Contaminant
         s       8       2        X                  

       Label   Cartesian Coordinates / Bohr

 H26               -6.9529368880        2.9474692369       -3.2652182755
 H27               -6.4722193803       -0.2165980840       -4.2448471584
 H28               -4.0097137335        1.9747634979       -4.5688060827
 H29               -6.7506703547       -0.5082774626        3.6276528740
 H30               -8.2928838574       -1.6536597041        0.9162307636
 H31               -8.5164469239        1.5873237598        1.6972986015
 H32                3.9157196064       -6.3154372508       -0.1026491483
 H33                6.6971756474       -4.8894344970       -1.2916991244
 H34                3.7884680192       -4.6460244495       -2.9784451740
 H35                4.4337595075       -0.7847182030        3.9045708837
 H36                7.0227596227       -2.6487551261        2.8664919024
 H37                4.1586313520       -4.0824647689        3.8525441723


      Basis set label: RU.ANO-RCC...6S5P3D.

      Electronic valence basis set:
      ------------------
      Associated Effective Charge  44.000000 au
      Associated Actual Charge     44.000000 au
      Nuclear Model: Point charge

      Shell  nPrim  nBasis  Cartesian Spherical Contaminant
         s      21       6        X                  
         p      18       5        X                  
         d      13       3                 X         

       Label   Cartesian Coordinates / Bohr

 RU38              -0.2212062568       -1.6656931021        0.1114335591


      Basis set label: H.ANO-RCC...2S.

      Electronic valence basis set:
      ------------------
      Associated Effective Charge   1.000000 au
      Associated Actual Charge      1.000000 au
      Nuclear Model: Point charge

      Shell  nPrim  nBasis  Cartesian Spherical Contaminant
         s       8       2        X                  

       Label   Cartesian Coordinates / Bohr

 H39               -1.3131193779       -4.1254915462       -6.1846468302
--


++    Molecular structure info:
      -------------------------

                    ************************************************ 
                    **** Cartesian Coordinates / Bohr, Angstrom **** 
                    ************************************************ 

     Center  Label                x              y              z                     x              y              z
        1      O1              -0.659794      -4.464632      -4.500272             -0.349148      -2.362581      -2.381442
        2      O2               0.220827      -1.553337      -3.847239              0.116857      -0.821990      -2.035871
        3      C3               4.648199      -4.701077      -1.128018              2.459721      -2.487703      -0.596921
        4      H4               4.685798      -0.430952      -3.082244              2.479618      -0.228050      -1.631053
        5      N5               3.975597      -2.366541       0.269398              2.103795      -1.252319       0.142559
        6      C6               4.967723      -0.114017      -1.078200              2.628806      -0.060335      -0.570559
        7      C7              -5.585890       1.419928      -3.382968             -2.955925       0.751393      -1.790189
        8      C8              -7.279136      -0.051593       1.700269             -3.851953      -0.027302       0.899743
        9      P9              -4.361411       0.516050      -0.200725             -2.307959       0.273082      -0.106219
       10      H10              6.978945       0.116539      -0.714014              3.693099       0.061670      -0.377840
       11      C11              4.966968      -2.474981       2.884099              2.628406      -1.309704       1.526200
       12      C12             -0.784051      -1.975127       4.145393             -0.414902      -1.045192       2.193647
       13      C13              3.566535       2.277945      -0.383040              1.887329       1.205437      -0.202696
       14      N14              1.094792       2.028525       0.120312              0.579339       1.073449       0.063666
       15      C15             -3.144842       3.589805       1.187676             -1.664179       1.899643       0.628491
       16      C16             -0.395963       4.055267       0.567532             -0.209535       2.145955       0.300325
       17      C17              4.684037       4.659473      -0.420197              2.478686       2.465687      -0.222359
       18      H18              6.670316       4.835036      -0.807045              3.529779       2.558591      -0.427070
       19      H19             -3.321851       3.382530       3.226948             -1.757848       1.789958       1.707628
       20      H20             -4.286665       5.190227       0.605335             -2.268406       2.746550       0.320330
       21      C21              0.643997       6.465098       0.505525              0.340788       3.421182       0.267512
       22      C22              3.216427       6.756442       0.019044              1.702060       3.575355       0.010077
       23      H23             -0.535652       8.081067       0.851208             -0.283455       4.276316       0.450440
       24      H24              4.042251       8.615058      -0.011065              2.139067       4.558892      -0.005856
       25      O25             -1.380662      -3.299663       5.915895             -0.730615      -1.746107       3.130557
       26      H26             -6.952937       2.947469      -3.265218             -3.679336       1.559734      -1.727879
       27      H27             -6.472219      -0.216598      -4.244847             -3.424951      -0.114619      -2.246276
       28      H28             -4.009714       1.974763      -4.568806             -2.121849       1.045000      -2.417708
       29      H29             -6.750670      -0.508277       3.627653             -3.572301      -0.268969       1.919671
       30      H30             -8.292884      -1.653660       0.916231             -4.388405      -0.875079       0.484848
       31      H31             -8.516447       1.587324       1.697299             -4.506710       0.839976       0.898172
       32      H32              3.915720      -6.315437      -0.102649              2.072110      -3.341985      -0.054320
       33      H33              6.697176      -4.889434      -1.291699              3.543993      -2.587377      -0.683538
       34      H34              3.788468      -4.646024      -2.978445              2.004771      -2.458570      -1.576125
       35      H35              4.433760      -0.784718       3.904571              2.346244      -0.415255       2.066210
       36      H36              7.022760      -2.648755       2.866492              3.716284      -1.401661       1.516882
       37      H37              4.158631      -4.082465       3.852544              2.200653      -2.160347       2.038679
       38      RU38            -0.221206      -1.665693       0.111434             -0.117057      -0.881447       0.058968
       39      H39             -1.313119      -4.125492      -6.184647             -0.694873      -2.183116      -3.272774

                    ************************************************* 
                    **** InterNuclear Distances / Bohr, Angstrom **** 
                    ************************************************* 

     Atom centers         Bohr        Angstrom
   39 H39       1 O1      1.838197        0.972732
   23 H23      21 C21     2.030375        1.074428
   18 H18      17 C17     2.031201        1.074865
   24 H24      22 C22     2.034046        1.076371
   34 H34       3 C3      2.041140        1.080125
   37 H37      11 C11     2.043354        1.081296
   35 H35      11 C11     2.045156        1.082250
   32 H32       3 C3      2.047942        1.083724
    6 C6        4 H4      2.048444        1.083990
   28 H28       7 C7      2.048996        1.084282
   29 H29       8 C8      2.050036        1.084832
   20 H20      15 C15     2.050422        1.085036
   27 H27       7 C7      2.051008        1.085347
   30 H30       8 C8      2.051590        1.085654
   26 H26       7 C7      2.053306        1.086563
   31 H31       8 C8      2.053532        1.086682
   10 H10       6 C6      2.056891        1.088460
   19 H19      15 C15     2.057408        1.088734
   36 H36      11 C11     2.063199        1.091798
   33 H33       3 C3      2.064116        1.092283
   25 O25      12 C12     2.290201        1.211922
   14 N14      13 C13     2.534775        1.341345
   16 C16      14 N14     2.555394        1.352256
   22 C22      17 C17     2.596939        1.374241
   21 C21      16 C16     2.625385        1.389294
   17 C17      13 C13     2.630943        1.392235
   22 C22      21 C21     2.634187        1.393952
   11 C11       5 N5      2.798435        1.480868
    5 N5        3 C3      2.802718        1.483134
    6 C6        5 N5      2.806100        1.484924
   16 C16      15 C15     2.856146        1.511407
   13 C13       6 C6      2.857982        1.512379
    2 O2        1 O1      3.110881        1.646208
   37 H37      35 H35     3.309612        1.751371
   28 H28      27 H27     3.312242        1.752763
   30 H30      29 H29     3.322970        1.758440
   20 H20      19 H19     3.327385        1.760776
   34 H34      32 H32     3.327662        1.760923
   31 H31      30 H30     3.341260        1.768119
   10 H10       4 H4      3.341674        1.768338
   33 H33      32 H32     3.344222        1.769686
   27 H27      26 H26     3.346951        1.771130
   37 H37      36 H36     3.351276        1.773419
   31 H31      29 H29     3.351981        1.773792
   36 H36      35 H35     3.354872        1.775322
   28 H28      26 H26     3.362746        1.779489
   34 H34      33 H33     3.371193        1.783958
    9 P9        7 C7      3.527465        1.866654
    9 P9        8 C8      3.528330        1.867112
   15 C15       9 P9      3.585480        1.897354
   39 H39       2 O2      3.799006        2.010347
   38 RU38     14 N14     3.921630        2.075237
    5 N5        4 H4      3.935022        2.082324
   32 H32       5 N5      3.966836        2.099159
   34 H34       5 N5      3.972348        2.102076
   37 H37       5 N5      3.977038        2.104558
   13 C13       4 H4      3.984543        2.108529
   38 RU38      2 O2      3.984860        2.108697
   35 H35       5 N5      3.990809        2.111845
   19 H19      16 C16     4.010723        2.122383
   36 H36       5 N5      4.013694        2.123955
   10 H10       5 N5      4.019065        2.126798
   33 H33       5 N5      4.026041        2.130489
   24 H24      17 C17     4.028143        2.131601
   22 C22      18 H18     4.037768        2.136695
   23 H23      16 C16     4.038199        2.136923
   18 H18      13 C13     4.043754        2.139863
   13 C13      10 H10     4.052871        2.144687
   20 H20      16 C16     4.053039        2.144776
   24 H24      21 C21     4.054297        2.145442
   23 H23      22 C22     4.065123        2.151170
   38 RU38     12 C12     4.084773        2.161569
   38 RU38      5 N5      4.257851        2.253158
   34 H34       4 H4      4.310778        2.281166
   16 C16      13 C13     4.445655        2.352539
   21 C21      14 N14     4.476023        2.368609
   17 C17      14 N14     4.482936        2.372268
   22 C22      13 C13     4.510120        2.386653
   21 C21      17 C17     4.520970        2.392394
   36 H36      10 H10     4.524245        2.394127
   22 C22      16 C16     4.543848        2.404501
   37 H37      32 H32     4.548486        2.406955
   14 N14       6 C6      4.585468        2.426525
   19 H19       9 P9      4.587629        2.427669
    6 C6        3 C3      4.598445        2.433392
   11 C11       3 C3      4.599369        2.433881
   11 C11       6 C6      4.612371        2.440762
   28 H28       9 P9      4.618622        2.444069
   27 H27       9 P9      4.620304        2.444959
   30 H30       9 P9      4.627279        2.448651
   29 H29       9 P9      4.627557        2.448798
   15 C15      14 N14     4.642344        2.456623
    4 H4        2 O2      4.667005        2.469673
   24 H24      18 H18     4.672138        2.472389
   24 H24      23 H23     4.688908        2.481263
   38 RU38      9 P9      4.690282        2.481990
   31 H31       9 P9      4.691956        2.482876
   26 H26       9 P9      4.692433        2.483128
    4 H4        3 C3      4.696209        2.485127
   34 H34       1 O1      4.704880        2.489715
   13 C13       5 N5      4.707893        2.491310
   18 H18      10 H10     4.729494        2.502740
   36 H36      33 H33     4.734681        2.505485
   23 H23      20 H20     4.742100        2.509411
   20 H20       9 P9      4.743759        2.510289
   34 H34       2 O2      4.800790        2.540469
   21 C21      15 C15     4.804991        2.542692
   17 C17       6 C6      4.826971        2.554323
   11 C11      10 H10     4.869338        2.576743
   32 H32      11 C11     4.977438        2.633947
   37 H37       3 C3      5.042654        2.668457
   33 H33      10 H10     5.047067        2.670793
   34 H34       6 C6      5.053778        2.674344
   35 H35       6 C6      5.055983        2.675511
   36 H36       3 C3      5.080027        2.688234
   33 H33       6 C6      5.083424        2.690032
   21 C21      20 H20     5.093789        2.695517
   17 C17      10 H10     5.098154        2.697827
   36 H36       6 C6      5.119440        2.709091
   33 H33      11 C11     5.124500        2.711768
   21 C21      13 C13     5.182955        2.742702
   22 C22      14 N14     5.183126        2.742792
   29 H29      19 H19     5.201514        2.752522
   23 H23      15 C15     5.205047        2.754393
   26 H26      20 H20     5.207701        2.755797
   33 H33       4 H4      5.208623        2.756285
   17 C17      16 C16     5.210286        2.757164
   18 H18       6 C6      5.240751        2.773286
   14 N14       5 N5      5.257173        2.781976
   35 H35      13 C13     5.339999        2.825806
   35 H35      10 H10     5.349912        2.831052
   35 H35      12 C12     5.357295        2.834958
   10 H10       3 C3      5.367793        2.840514
   16 C16       9 P9      5.370387        2.841886
   31 H31      26 H26     5.377837        2.845829
   37 H37      12 C12     5.381147        2.847580
   14 N14       4 H4      5.403769        2.859551
   38 RU38      1 O1      5.412416        2.864127
   14 N14       2 O2      5.416181        2.866119
   19 H19       8 C8      5.457476        2.887972
   38 RU38     13 C13     5.490334        2.905360
   15 C15       8 C8      5.533074        2.927977
   38 RU38      6 C6      5.545080        2.934330
   28 H28       2 O2      5.555684        2.939941
    8 C8        7 C7      5.556235        2.940233
   19 H19      14 N14     5.566980        2.945919
   15 C15       7 C7      5.617638        2.972726
    5 N5        2 O2      5.630835        2.979710
   20 H20       7 C7      5.640009        2.984564
   36 H36      32 H32     5.649253        2.989456
   30 H30      27 H27     5.658329        2.994259
   31 H31      20 H20     5.662539        2.996487
--


++    Isotope specification:
      ----------------------

 Center
 Type   Z    A    mass (Da)
 --------------------------
    1   8   16    15.994915
    2   6   12    12.000000
    3   1    1     1.007825
    4   7   14    14.003074
    5   6   12    12.000000
    6  15   31    30.973762
    7   1    1     1.007825
    8   6   12    12.000000
    9   7   14    14.003074
   10   6   12    12.000000
   11   1    1     1.007825
   12   6   12    12.000000
   13   1    1     1.007825
   14   8   16    15.994915
   15   1    1     1.007825
   16  44  102   101.904344
   17   1    1     1.007825
--


++    Rigid rotor info:
      -----------------


                    Total mass (a) : 373.02550

                    Center of mass 
                          X          Y          Z   
                       0.00072   -0.16664    0.05726

                    Reference system based on center of mass
                    Coordinates and Masses of Atoms, in au and A
                          X          Y          Z        Mass
                      -0.66052   -4.29799   -4.55753   15.99491
                       0.22010   -1.38670   -3.90450   15.99491
                       4.64748   -4.53444   -1.18528   12.00000
                       4.68507   -0.26431   -3.13951    1.00783
                       3.97487   -2.19990    0.21214   14.00307
                       4.96700    0.05262   -1.13546   12.00000
                      -5.58661    1.58657   -3.44023   12.00000
                      -7.27986    0.11505    1.64301   12.00000
                      -4.36213    0.68269   -0.25799   30.97376
                       6.97822    0.28318   -0.77128    1.00783
                       4.96624   -2.30834    2.82684   12.00000
                      -0.78477   -1.80849    4.08813   12.00000
                       3.56581    2.44459   -0.44030   12.00000
                       1.09407    2.19516    0.06305   14.00307
                      -3.14557    3.75644    1.13041   12.00000
                      -0.39669    4.22191    0.51027   12.00000
                       4.68331    4.82611   -0.47746   12.00000
                       6.66959    5.00168   -0.86431    1.00783
                      -3.32258    3.54917    3.16969    1.00783
                      -4.28739    5.35687    0.54807    1.00783
                       0.64327    6.63174    0.44826   12.00000
                       3.21570    6.92308   -0.03822   12.00000
                      -0.53638    8.24771    0.79395    1.00783
                       4.04153    8.78170   -0.06833    1.00783
                      -1.38139   -3.13302    5.85863   15.99491
                      -6.95366    3.11411   -3.32248    1.00783
                      -6.47294   -0.04996   -4.30211    1.00783
                      -4.01044    2.14140   -4.62607    1.00783
                      -6.75139   -0.34164    3.57039    1.00783
                      -8.29361   -1.48702    0.85897    1.00783
                      -8.51717    1.75396    1.64004    1.00783
                       3.91500   -6.14880   -0.15991    1.00783
                       6.69645   -4.72279   -1.34896    1.00783
                       3.78774   -4.47938   -3.03571    1.00783
                       4.43304   -0.61808    3.84731    1.00783
                       7.02204   -2.48212    2.80923    1.00783
                       4.15791   -3.91582    3.79528    1.00783
                      -0.22193   -1.49905    0.05417  101.90434
                      -1.31384   -3.95885   -6.24191    1.00783

                    The Moment of Inertia Tensor / au
                                     X          Y        Z     
                    X             0.9600E+07
                    Y             0.1756E+06 0.1069E+08
                    Z             0.5373E+05-0.1571E+05 0.1360E+08

                    The Principal Axes and Moments of Inertia (au)
                    Eigenvalues : 0.1360E+08 0.1071E+08 0.9572E+07
                                     X'         Y'       Z'    
                    Eigenvectors:
                    X             0.1324E-01 0.1559E+00 0.9877E+00
                    Y            -0.4597E-02 0.9878E+00-0.1559E+00
                    Z             0.9999E+00 0.2476E-02-0.1380E-01

                    The Rotational Constants
                            (cm-1)            (GHz)
                              0.008            0.242
                              0.010            0.307
                              0.011            0.344


                    *******************************************
                    *                                         *
                    * R I G I D - R O T O R   A N A L Y S I S *
                    *                                         *
                    *******************************************

                    j(Max):  5

                    Rotor Type: Linear Rotor
                    Asymmetry parameter:  0.280
                    Prolate = -1
                    Oblate  =  1


                    Rotational energies / cm-1

                    E(J= 0,kappa= 0) =        0.000

                    E(J= 1,kappa=-1) =        0.018
                    E(J= 1,kappa= 0) =        0.020
                    E(J= 1,kappa= 1) =        0.022

                    E(J= 2,kappa=-2) =        0.054
                    E(J= 2,kappa=-1) =        0.054
                    E(J= 2,kappa= 0) =        0.061
                    E(J= 2,kappa= 1) =        0.064
                    E(J= 2,kappa= 2) =        0.066

                    E(J= 3,kappa=-3) =        0.105
                    E(J= 3,kappa=-2) =        0.105
                    E(J= 3,kappa=-1) =        0.117
                    E(J= 3,kappa= 0) =        0.119
                    E(J= 3,kappa= 1) =        0.124
                    E(J= 3,kappa= 2) =        0.131
                    E(J= 3,kappa= 3) =        0.132

                    E(J= 4,kappa=-4) =        0.172
                    E(J= 4,kappa=-3) =        0.172
                    E(J= 4,kappa=-2) =        0.191
                    E(J= 4,kappa=-1) =        0.191
                    E(J= 4,kappa= 0) =        0.202
                    E(J= 4,kappa= 1) =        0.206
                    E(J= 4,kappa= 2) =        0.210
                    E(J= 4,kappa= 3) =        0.221
                    E(J= 4,kappa= 4) =        0.221

                    E(J= 5,kappa=-5) =        0.256
                    E(J= 5,kappa=-4) =        0.256
                    E(J= 5,kappa=-3) =        0.280
                    E(J= 5,kappa=-2) =        0.280
                    E(J= 5,kappa=-1) =        0.297
                    E(J= 5,kappa= 0) =        0.299
                    E(J= 5,kappa= 1) =        0.307
                    E(J= 5,kappa= 2) =        0.316
                    E(J= 5,kappa= 3) =        0.317
                    E(J= 5,kappa= 4) =        0.334
                    E(J= 5,kappa= 5) =        0.334
--


++    Primitive basis info:
      ---------------------


                    *****************************************************
                    ******** Primitive Basis Functions (Valence) ********
                    *****************************************************


 Basis set:O.ANO-RCC...3S2P.                                                               

                  Type         
                   s
           No.      Exponent    Contraction Coefficients
            1  0.105374950D+06   0.000124  -0.000028   0.000026
            2  0.156792400D+05   0.000512  -0.000116   0.000107
            3  0.353454470D+04   0.002153  -0.000491   0.000460
            4  0.987365160D+03   0.008528  -0.001946   0.001796
            5  0.315978750D+03   0.030180  -0.007005   0.006676
            6  0.111654280D+03   0.090997  -0.021678   0.020534
            7  0.426994510D+02   0.217794  -0.056412   0.058286
            8  0.173955960D+02   0.368625  -0.112705   0.121297
            9  0.743830900D+01   0.336671  -0.158912   0.226415
           10  0.322286200D+01   0.096576  -0.033551  -0.042387
           11  0.125387700D+01   0.002145   0.353190  -1.010455
           12  0.495155000D+00   0.001194   0.553420  -0.153869
           13  0.191665000D+00   0.000539   0.230184   0.993453
           14  0.670830000D-01   0.000210   0.011273   0.185873

                  Type         
                   p
           No.      Exponent    Contraction Coefficients
           15  0.200000000D+03   0.000917  -0.000872
           16  0.465333670D+02   0.007377  -0.007064
           17  0.146218090D+02   0.034835  -0.033305
           18  0.531306400D+01   0.114440  -0.114413
           19  0.210252500D+01   0.255497  -0.299011
           20  0.850223000D+00   0.372256  -0.319861
           21  0.337597000D+00   0.332331   0.205509
           22  0.128892000D+00   0.140085   0.593593
           23  0.451120000D-01   0.023958   0.282290


 Basis set:C.ANO-RCC...3S2P.                                                               

                  Type         
                   s
           No.      Exponent    Contraction Coefficients
           47  0.505575010D+05   0.000113  -0.000025   0.000016
           48  0.752478560D+04   0.000530  -0.000118   0.000075
           49  0.169432760D+04   0.002450  -0.000546   0.000357
           50  0.472822790D+03   0.010054  -0.002245   0.001435
           51  0.151710750D+03   0.035454  -0.008043   0.005509
           52  0.539187460D+02   0.104407  -0.024426   0.016915
           53  0.206593110D+02   0.241289  -0.061368   0.051417
           54  0.838397600D+01   0.383423  -0.117777   0.113734
           55  0.357701500D+01   0.307851  -0.155049   0.233718
           56  0.154711800D+01   0.068724  -0.019333  -0.071838
           57  0.613013000D+00   0.000222   0.399693  -1.049091
           58  0.246068000D+00   0.001977   0.558942  -0.066627
           59  0.990870000D-01   0.002058   0.171120   1.011999
           60  0.346800000D-01   0.000418   0.007456   0.165605

                  Type         
                   p
           No.      Exponent    Contraction Coefficients
           61  0.833331550D+02   0.001345  -0.001772
           62  0.195576110D+02   0.010236  -0.014562
           63  0.608036500D+01   0.045201  -0.057457
           64  0.217931700D+01   0.141076  -0.212658
           65  0.865150000D+00   0.304739  -0.527171
           66  0.361944000D+00   0.399528  -0.092970
           67  0.154740000D+00   0.271916   0.663003
           68  0.654290000D-01   0.058577   0.336088
           69  0.229000000D-01  -0.000126   0.005470


 Basis set:H.ANO-RCC...2S.                                                                 

                  Type         
                   s
           No.      Exponent    Contraction Coefficients
           70  0.188614450D+03   0.000964  -0.001312
           71  0.282765960D+02   0.007492  -0.010345
           72  0.642483000D+01   0.037595  -0.050495
           73  0.181504100D+01   0.143395  -0.207386
           74  0.591063000D+00   0.348636  -0.435088
           75  0.212149000D+00   0.438297  -0.024730
           76  0.798910000D-01   0.165107   0.322526
           77  0.279620000D-01   0.021023   0.707275


 Basis set:N.ANO-RCC...3S2P.                                                               

                  Type         
                   s
           No.      Exponent    Contraction Coefficients
           78  0.747617150D+05   0.000118  -0.000027   0.000019
           79  0.111236540D+05   0.000517  -0.000118   0.000081
           80  0.251268570D+04   0.002267  -0.000520   0.000366
           81  0.703777290D+03   0.009145  -0.002103   0.001443
           82  0.225478790D+03   0.032393  -0.007568   0.005532
           83  0.796158100D+02   0.097708  -0.023468   0.017244
           84  0.302372830D+02   0.231704  -0.060429   0.052795
           85  0.122636220D+02   0.376890  -0.117055   0.115288
           86  0.526508600D+01   0.317742  -0.155532   0.235259
           87  0.233347100D+01   0.082113  -0.024689  -0.048964
           88  0.901856000D+00   0.003312   0.362505  -1.023218
           89  0.358336000D+00   0.003721   0.555084  -0.148159
           90  0.141093000D+00   0.003165   0.214838   1.021558
           91  0.493830000D-01   0.000460   0.008984   0.172402

                  Type         
                   p
           No.      Exponent    Contraction Coefficients
           92  0.126666570D+03   0.001234  -0.001466
           93  0.298373890D+02   0.009493  -0.011821
           94  0.939403800D+01   0.042940  -0.049831
           95  0.340510400D+01   0.136293  -0.173090
           96  0.135000000D+01   0.292136  -0.473237
           97  0.557696000D+00   0.388789  -0.205511
           98  0.232449000D+00   0.294680   0.591038
           99  0.942640000D-01   0.080129   0.451180
          100  0.329920000D-01   0.000541   0.013675


 Basis set:C.ANO-RCC...3S2P.                                                               

                  Type         
                   s
           No.      Exponent    Contraction Coefficients
          101  0.505575010D+05   0.000113  -0.000025   0.000016
          102  0.752478560D+04   0.000530  -0.000118   0.000075
          103  0.169432760D+04   0.002450  -0.000546   0.000357
          104  0.472822790D+03   0.010054  -0.002245   0.001435
          105  0.151710750D+03   0.035454  -0.008043   0.005509
          106  0.539187460D+02   0.104407  -0.024426   0.016915
          107  0.206593110D+02   0.241289  -0.061368   0.051417
          108  0.838397600D+01   0.383423  -0.117777   0.113734
          109  0.357701500D+01   0.307851  -0.155049   0.233718
          110  0.154711800D+01   0.068724  -0.019333  -0.071838
          111  0.613013000D+00   0.000222   0.399693  -1.049091
          112  0.246068000D+00   0.001977   0.558942  -0.066627
          113  0.990870000D-01   0.002058   0.171120   1.011999
          114  0.346800000D-01   0.000418   0.007456   0.165605

                  Type         
                   p
           No.      Exponent    Contraction Coefficients
          115  0.833331550D+02   0.001345  -0.001772
          116  0.195576110D+02   0.010236  -0.014562
          117  0.608036500D+01   0.045201  -0.057457
          118  0.217931700D+01   0.141076  -0.212658
          119  0.865150000D+00   0.304739  -0.527171
          120  0.361944000D+00   0.399528  -0.092970
          121  0.154740000D+00   0.271916   0.663003
          122  0.654290000D-01   0.058577   0.336088
          123  0.229000000D-01  -0.000126   0.005470


 Basis set:P.ANO-RCC...4S3P.                                                               

                  Type         
                   s
           No.      Exponent    Contraction Coefficients
          170  0.296647550D+06  -0.000278   0.000066   0.000042  -0.000021
          171  0.423800300D+05  -0.000920   0.000218   0.000140  -0.000069
          172  0.125038560D+05  -0.002112   0.000503   0.000324  -0.000158
          173  0.442249370D+04  -0.006118   0.001461   0.000938  -0.000457
          174  0.168184780D+04  -0.017156   0.004147   0.002667  -0.001290
          175  0.663214900D+03  -0.048906   0.012039   0.007700  -0.003702
          176  0.267005850D+03  -0.128061   0.033290   0.021236  -0.009969
          177  0.108895920D+03  -0.280856   0.081855   0.051433  -0.023169
          178  0.447973140D+02  -0.408791   0.158144   0.097900  -0.040366
          179  0.185403120D+02  -0.239938   0.141889   0.085829  -0.033441
          180  0.770709950D+01  -0.020129  -0.179413  -0.105386   0.039743
          181  0.321437500D+01  -0.005211  -0.551931  -0.405333   0.236354
          182  0.134401270D+01  -0.001161  -0.269939  -0.366796   0.478799
          183  0.563087000D+00   0.003590  -0.048811   0.252762  -0.852342
          184  0.236287000D+00   0.014643  -0.145579   0.631092  -1.009743
          185  0.992811000D-01   0.006883  -0.080411   0.309338   1.172316
          186  0.397124000D-01   0.000538  -0.008907   0.021962   0.410274

                  Type         
                   p
           No.      Exponent    Contraction Coefficients
          187  0.101841220D+04   0.000823  -0.000196   0.000196
          188  0.247398200D+03   0.005507  -0.001308   0.001270
          189  0.877904820D+02   0.023423  -0.005636   0.005713
          190  0.342486000D+02   0.085691  -0.020859   0.020321
          191  0.138770140D+02   0.228880  -0.057676   0.059638
          192  0.573030980D+01   0.397112  -0.102511   0.099600
          193  0.239200680D+01   0.367905  -0.105932   0.125349
          194  0.100527670D+01   0.105637   0.060910  -0.109693
          195  0.424392900D+00  -0.000359   0.393662  -0.721429
          196  0.179730600D+00  -0.000516   0.471351  -0.003709
          197  0.762910000D-01  -0.001324   0.204967   0.646806
          198  0.305164000D-01   0.000005   0.030803   0.374610


 Basis set:H.ANO-RCC...2S.                                                                 

                  Type         
                   s
           No.      Exponent    Contraction Coefficients
          199  0.188614450D+03   0.000964  -0.001312
          200  0.282765960D+02   0.007492  -0.010345
          201  0.642483000D+01   0.037595  -0.050495
          202  0.181504100D+01   0.143395  -0.207386
          203  0.591063000D+00   0.348636  -0.435088
          204  0.212149000D+00   0.438297  -0.024730
          205  0.798910000D-01   0.165107   0.322526
          206  0.279620000D-01   0.021023   0.707275


 Basis set:C.ANO-RCC...3S2P.                                                               

                  Type         
                   s
           No.      Exponent    Contraction Coefficients
          207  0.505575010D+05   0.000113  -0.000025   0.000016
          208  0.752478560D+04   0.000530  -0.000118   0.000075
          209  0.169432760D+04   0.002450  -0.000546   0.000357
          210  0.472822790D+03   0.010054  -0.002245   0.001435
          211  0.151710750D+03   0.035454  -0.008043   0.005509
          212  0.539187460D+02   0.104407  -0.024426   0.016915
          213  0.206593110D+02   0.241289  -0.061368   0.051417
          214  0.838397600D+01   0.383423  -0.117777   0.113734
          215  0.357701500D+01   0.307851  -0.155049   0.233718
          216  0.154711800D+01   0.068724  -0.019333  -0.071838
          217  0.613013000D+00   0.000222   0.399693  -1.049091
          218  0.246068000D+00   0.001977   0.558942  -0.066627
          219  0.990870000D-01   0.002058   0.171120   1.011999
          220  0.346800000D-01   0.000418   0.007456   0.165605

                  Type         
                   p
           No.      Exponent    Contraction Coefficients
          221  0.833331550D+02   0.001345  -0.001772
          222  0.195576110D+02   0.010236  -0.014562
          223  0.608036500D+01   0.045201  -0.057457
          224  0.217931700D+01   0.141076  -0.212658
          225  0.865150000D+00   0.304739  -0.527171
          226  0.361944000D+00   0.399528  -0.092970
          227  0.154740000D+00   0.271916   0.663003
          228  0.654290000D-01   0.058577   0.336088
          229  0.229000000D-01  -0.000126   0.005470


 Basis set:N.ANO-RCC...3S2P.                                                               

                  Type         
                   s
           No.      Exponent    Contraction Coefficients
          276  0.747617150D+05   0.000118  -0.000027   0.000019
          277  0.111236540D+05   0.000517  -0.000118   0.000081
          278  0.251268570D+04   0.002267  -0.000520   0.000366
          279  0.703777290D+03   0.009145  -0.002103   0.001443
          280  0.225478790D+03   0.032393  -0.007568   0.005532
          281  0.796158100D+02   0.097708  -0.023468   0.017244
          282  0.302372830D+02   0.231704  -0.060429   0.052795
          283  0.122636220D+02   0.376890  -0.117055   0.115288
          284  0.526508600D+01   0.317742  -0.155532   0.235259
          285  0.233347100D+01   0.082113  -0.024689  -0.048964
          286  0.901856000D+00   0.003312   0.362505  -1.023218
          287  0.358336000D+00   0.003721   0.555084  -0.148159
          288  0.141093000D+00   0.003165   0.214838   1.021558
          289  0.493830000D-01   0.000460   0.008984   0.172402

                  Type         
                   p
           No.      Exponent    Contraction Coefficients
          290  0.126666570D+03   0.001234  -0.001466
          291  0.298373890D+02   0.009493  -0.011821
          292  0.939403800D+01   0.042940  -0.049831
          293  0.340510400D+01   0.136293  -0.173090
          294  0.135000000D+01   0.292136  -0.473237
          295  0.557696000D+00   0.388789  -0.205511
          296  0.232449000D+00   0.294680   0.591038
          297  0.942640000D-01   0.080129   0.451180
          298  0.329920000D-01   0.000541   0.013675


 Basis set:C.ANO-RCC...3S2P.                                                               

                  Type         
                   s
           No.      Exponent    Contraction Coefficients
          299  0.505575010D+05   0.000113  -0.000025   0.000016
          300  0.752478560D+04   0.000530  -0.000118   0.000075
          301  0.169432760D+04   0.002450  -0.000546   0.000357
          302  0.472822790D+03   0.010054  -0.002245   0.001435
          303  0.151710750D+03   0.035454  -0.008043   0.005509
          304  0.539187460D+02   0.104407  -0.024426   0.016915
          305  0.206593110D+02   0.241289  -0.061368   0.051417
          306  0.838397600D+01   0.383423  -0.117777   0.113734
          307  0.357701500D+01   0.307851  -0.155049   0.233718
          308  0.154711800D+01   0.068724  -0.019333  -0.071838
          309  0.613013000D+00   0.000222   0.399693  -1.049091
          310  0.246068000D+00   0.001977   0.558942  -0.066627
          311  0.990870000D-01   0.002058   0.171120   1.011999
          312  0.346800000D-01   0.000418   0.007456   0.165605

                  Type         
                   p
           No.      Exponent    Contraction Coefficients
          313  0.833331550D+02   0.001345  -0.001772
          314  0.195576110D+02   0.010236  -0.014562
          315  0.608036500D+01   0.045201  -0.057457
          316  0.217931700D+01   0.141076  -0.212658
          317  0.865150000D+00   0.304739  -0.527171
          318  0.361944000D+00   0.399528  -0.092970
          319  0.154740000D+00   0.271916   0.663003
          320  0.654290000D-01   0.058577   0.336088
          321  0.229000000D-01  -0.000126   0.005470


 Basis set:H.ANO-RCC...2S.                                                                 

                  Type         
                   s
           No.      Exponent    Contraction Coefficients
          368  0.188614450D+03   0.000964  -0.001312
          369  0.282765960D+02   0.007492  -0.010345
          370  0.642483000D+01   0.037595  -0.050495
          371  0.181504100D+01   0.143395  -0.207386
          372  0.591063000D+00   0.348636  -0.435088
          373  0.212149000D+00   0.438297  -0.024730
          374  0.798910000D-01   0.165107   0.322526
          375  0.279620000D-01   0.021023   0.707275


 Basis set:C.ANO-RCC...3S2P.                                                               

                  Type         
                   s
           No.      Exponent    Contraction Coefficients
          392  0.505575010D+05   0.000113  -0.000025   0.000016
          393  0.752478560D+04   0.000530  -0.000118   0.000075
          394  0.169432760D+04   0.002450  -0.000546   0.000357
          395  0.472822790D+03   0.010054  -0.002245   0.001435
          396  0.151710750D+03   0.035454  -0.008043   0.005509
          397  0.539187460D+02   0.104407  -0.024426   0.016915
          398  0.206593110D+02   0.241289  -0.061368   0.051417
          399  0.838397600D+01   0.383423  -0.117777   0.113734
          400  0.357701500D+01   0.307851  -0.155049   0.233718
          401  0.154711800D+01   0.068724  -0.019333  -0.071838
          402  0.613013000D+00   0.000222   0.399693  -1.049091
          403  0.246068000D+00   0.001977   0.558942  -0.066627
          404  0.990870000D-01   0.002058   0.171120   1.011999
          405  0.346800000D-01   0.000418   0.007456   0.165605

                  Type         
                   p
           No.      Exponent    Contraction Coefficients
          406  0.833331550D+02   0.001345  -0.001772
          407  0.195576110D+02   0.010236  -0.014562
          408  0.608036500D+01   0.045201  -0.057457
          409  0.217931700D+01   0.141076  -0.212658
          410  0.865150000D+00   0.304739  -0.527171
          411  0.361944000D+00   0.399528  -0.092970
          412  0.154740000D+00   0.271916   0.663003
          413  0.654290000D-01   0.058577   0.336088
          414  0.229000000D-01  -0.000126   0.005470


 Basis set:H.ANO-RCC...2S.                                                                 

                  Type         
                   s
           No.      Exponent    Contraction Coefficients
          438  0.188614450D+03   0.000964  -0.001312
          439  0.282765960D+02   0.007492  -0.010345
          440  0.642483000D+01   0.037595  -0.050495
          441  0.181504100D+01   0.143395  -0.207386
          442  0.591063000D+00   0.348636  -0.435088
          443  0.212149000D+00   0.438297  -0.024730
          444  0.798910000D-01   0.165107   0.322526
          445  0.279620000D-01   0.021023   0.707275


 Basis set:O.ANO-RCC...3S2P.                                                               

                  Type         
                   s
           No.      Exponent    Contraction Coefficients
          454  0.105374950D+06   0.000124  -0.000028   0.000026
          455  0.156792400D+05   0.000512  -0.000116   0.000107
          456  0.353454470D+04   0.002153  -0.000491   0.000460
          457  0.987365160D+03   0.008528  -0.001946   0.001796
          458  0.315978750D+03   0.030180  -0.007005   0.006676
          459  0.111654280D+03   0.090997  -0.021678   0.020534
          460  0.426994510D+02   0.217794  -0.056412   0.058286
          461  0.173955960D+02   0.368625  -0.112705   0.121297
          462  0.743830900D+01   0.336671  -0.158912   0.226415
          463  0.322286200D+01   0.096576  -0.033551  -0.042387
          464  0.125387700D+01   0.002145   0.353190  -1.010455
          465  0.495155000D+00   0.001194   0.553420  -0.153869
          466  0.191665000D+00   0.000539   0.230184   0.993453
          467  0.670830000D-01   0.000210   0.011273   0.185873

                  Type         
                   p
           No.      Exponent    Contraction Coefficients
          468  0.200000000D+03   0.000917  -0.000872
          469  0.465333670D+02   0.007377  -0.007064
          470  0.146218090D+02   0.034835  -0.033305
          471  0.531306400D+01   0.114440  -0.114413
          472  0.210252500D+01   0.255497  -0.299011
          473  0.850223000D+00   0.372256  -0.319861
          474  0.337597000D+00   0.332331   0.205509
          475  0.128892000D+00   0.140085   0.593593
          476  0.451120000D-01   0.023958   0.282290


 Basis set:H.ANO-RCC...2S.                                                                 

                  Type         
                   s
           No.      Exponent    Contraction Coefficients
          477  0.188614450D+03   0.000964  -0.001312
          478  0.282765960D+02   0.007492  -0.010345
          479  0.642483000D+01   0.037595  -0.050495
          480  0.181504100D+01   0.143395  -0.207386
          481  0.591063000D+00   0.348636  -0.435088
          482  0.212149000D+00   0.438297  -0.024730
          483  0.798910000D-01   0.165107   0.322526
          484  0.279620000D-01   0.021023   0.707275


 Basis set:RU.ANO-RCC...6S5P3D.                                                            

                  Type         
                   s
           No.      Exponent    Contraction Coefficients
          573  0.240082896D+08   0.000211  -0.000071   0.000030  -0.000012   0.000003  -0.000004
          574  0.333598099D+07   0.000629  -0.000211   0.000090  -0.000037   0.000009  -0.000013
          575  0.671907416D+06   0.001790  -0.000602   0.000258  -0.000104   0.000027  -0.000036
          576  0.167149978D+06   0.004624  -0.001562   0.000669  -0.000271   0.000070  -0.000094
          577  0.483819012D+05   0.011573  -0.003941   0.001691  -0.000685   0.000177  -0.000237
          578  0.157041609D+05   0.028678  -0.009929   0.004269  -0.001726   0.000444  -0.000595
          579  0.557449458D+04   0.070513  -0.025133   0.010854  -0.004407   0.001138  -0.001534
          580  0.212159631D+04   0.163345  -0.062218   0.027110  -0.010968   0.002819  -0.003768
          581  0.851853314D+03   0.313022  -0.136572   0.060764  -0.024870   0.006438  -0.008719
          582  0.357061668D+03   0.381626  -0.222209   0.103280  -0.042096   0.010793  -0.014335
          583  0.154188376D+03   0.185094  -0.113776   0.056435  -0.024478   0.006543  -0.009313
          584  0.658210557D+02   0.011364   0.428140  -0.286404   0.129152  -0.034315   0.047991
          585  0.299216525D+02   0.002334   0.611083  -0.606633   0.281288  -0.072737   0.096103
          586  0.137645551D+02  -0.001765   0.139294   0.067511  -0.022839   0.002327  -0.000112
          587  0.632318098D+01   0.001077   0.006543   0.894943  -0.761252   0.228798  -0.336974
          588  0.286808667D+01  -0.000620  -0.001507   0.316186  -0.322278   0.081582  -0.086654
          589  0.121046730D+01   0.000300   0.000831  -0.003571   0.976106  -0.364392   0.681486
          590  0.474729190D+00  -0.000130  -0.000477   0.005441   0.444214  -0.371157   0.166685
          591  0.165217160D+00   0.000053   0.000193  -0.001837  -0.011142   0.421699  -1.067480
          592  0.505418800D-01  -0.000023  -0.000089   0.000829   0.012353   0.723292  -0.389261
          593  0.202167500D-01   0.000009   0.000032  -0.000295  -0.003091   0.121848   1.258975

                  Type         
                   p
           No.      Exponent    Contraction Coefficients
          594  0.581160979D+06   0.000035  -0.000016   0.000006  -0.000002   0.000006
          595  0.849507118D+05   0.000158  -0.000070   0.000027  -0.000010   0.000026
          596  0.188156282D+05   0.000676  -0.000301   0.000114  -0.000044   0.000113
          597  0.540518171D+04   0.002801  -0.001250   0.000474  -0.000182   0.000462
          598  0.186673392D+04   0.010947  -0.004927   0.001881  -0.000726   0.001869
          599  0.732162845D+03   0.038371  -0.017518   0.006665  -0.002556   0.006499
          600  0.314126008D+03   0.112250  -0.052985   0.020415  -0.007896   0.020423
          601  0.143665970D+03   0.250791  -0.124026   0.047782  -0.018338   0.046693
          602  0.686311581D+02   0.377479  -0.199286   0.078867  -0.030753   0.080318
          603  0.337373411D+02   0.302653  -0.121097   0.041747  -0.015224   0.035386
          604  0.164568246D+02   0.089933   0.240936  -0.122381   0.049119  -0.141664
          605  0.807731060D+01   0.004153   0.544521  -0.315925   0.130231  -0.338543
          606  0.400079628D+01   0.001293   0.325022  -0.144214   0.054204  -0.139581
          607  0.180382157D+01  -0.000502   0.040459   0.454830  -0.264691   1.246980
          608  0.808086240D+00   0.000197  -0.000829   0.580319  -0.293779  -0.374695
          609  0.328931230D+00  -0.000107   0.000805   0.165139   0.189237  -0.968468
          610  0.131572490D+00   0.000045  -0.000274  -0.002135   0.605091   0.161666
          611  0.526289900D-01  -0.000014   0.000078   0.002432   0.377313   0.631744

                  Type         
                   d
           No.      Exponent    Contraction Coefficients
          612  0.851853314D+03   0.001085  -0.000323   0.000374
          613  0.357061668D+03   0.003980  -0.001167   0.001146
          614  0.154188376D+03   0.022867  -0.006841   0.007774
          615  0.658210557D+02   0.086481  -0.025878   0.026764
          616  0.299216525D+02   0.225653  -0.068936   0.078381
          617  0.137645551D+02   0.386845  -0.113078   0.113145
          618  0.632318098D+01   0.372310  -0.091196   0.124455
          619  0.286808667D+01   0.140762   0.131707  -0.232861
          620  0.121046730D+01   0.011589   0.416983  -0.606611
          621  0.474729190D+00   0.000728   0.452520   0.194294
          622  0.165217160D+00  -0.000016   0.232336   0.625342
          623  0.660868600D-01   0.000082   0.021003   0.171283
          624  0.264347500D-01  -0.000023   0.009222   0.046984


 Basis set:H.ANO-RCC...2S.                                                                 

                  Type         
                   s
           No.      Exponent    Contraction Coefficients
          625  0.188614450D+03   0.000964  -0.001312
          626  0.282765960D+02   0.007492  -0.010345
          627  0.642483000D+01   0.037595  -0.050495
          628  0.181504100D+01   0.143395  -0.207386
          629  0.591063000D+00   0.348636  -0.435088
          630  0.212149000D+00   0.438297  -0.024730
          631  0.798910000D-01   0.165107   0.322526
          632  0.279620000D-01   0.021023   0.707275

  Number of primitives                                 1050
  Number of basis functions                             242

--


++    SO/AO info:
      -----------

                    **************************************************
                    ********** Petite list Basis Functions ***********
                    **************************************************


           Basis functions generated by E  

 Basis Label        Type   Center
    1  O1            1s       1
    2  O1            2s       1
    3  O1            3s       1
    4  O1            2px      1
    5  O1            3px      1
    6  O1            2py      1
    7  O1            3py      1
    8  O1            2pz      1
    9  O1            3pz      1
   10  O2            1s       2
   11  O2            2s       2
   12  O2            3s       2
   13  O2            2px      2
   14  O2            3px      2
   15  O2            2py      2
   16  O2            3py      2
   17  O2            2pz      2
   18  O2            3pz      2
   19  C3            1s       3
   20  C3            2s       3
   21  C3            3s       3
   22  C3            2px      3
   23  C3            3px      3
   24  C3            2py      3
   25  C3            3py      3
   26  C3            2pz      3
   27  C3            3pz      3
   28  H4            1s       4
   29  H4            2s       4
   30  N5            1s       5
   31  N5            2s       5
   32  N5            3s       5
   33  N5            2px      5
   34  N5            3px      5
   35  N5            2py      5
   36  N5            3py      5
   37  N5            2pz      5
   38  N5            3pz      5
   39  C6            1s       6
   40  C6            2s       6
   41  C6            3s       6
   42  C6            2px      6
   43  C6            3px      6
   44  C6            2py      6
   45  C6            3py      6
   46  C6            2pz      6
   47  C6            3pz      6
   48  C7            1s       7
   49  C7            2s       7
   50  C7            3s       7
   51  C7            2px      7
   52  C7            3px      7
   53  C7            2py      7
   54  C7            3py      7
   55  C7            2pz      7
   56  C7            3pz      7
   57  C8            1s       8
   58  C8            2s       8
   59  C8            3s       8
   60  C8            2px      8
   61  C8            3px      8
   62  C8            2py      8
   63  C8            3py      8
   64  C8            2pz      8
   65  C8            3pz      8
   66  P9            1s       9
   67  P9            2s       9
   68  P9            3s       9
   69  P9            4s       9
   70  P9            2px      9
   71  P9            3px      9
   72  P9            4px      9
   73  P9            2py      9
   74  P9            3py      9
   75  P9            4py      9
   76  P9            2pz      9
   77  P9            3pz      9
   78  P9            4pz      9
   79  H10           1s      10
   80  H10           2s      10
   81  C11           1s      11
   82  C11           2s      11
   83  C11           3s      11
   84  C11           2px     11
   85  C11           3px     11
   86  C11           2py     11
   87  C11           3py     11
   88  C11           2pz     11
   89  C11           3pz     11
   90  C12           1s      12
   91  C12           2s      12
   92  C12           3s      12
   93  C12           2px     12
   94  C12           3px     12
   95  C12           2py     12
   96  C12           3py     12
   97  C12           2pz     12
   98  C12           3pz     12
   99  C13           1s      13
  100  C13           2s      13
  101  C13           3s      13
  102  C13           2px     13
  103  C13           3px     13
  104  C13           2py     13
  105  C13           3py     13
  106  C13           2pz     13
  107  C13           3pz     13
  108  N14           1s      14
  109  N14           2s      14
  110  N14           3s      14
  111  N14           2px     14
  112  N14           3px     14
  113  N14           2py     14
  114  N14           3py     14
  115  N14           2pz     14
  116  N14           3pz     14
  117  C15           1s      15
  118  C15           2s      15
  119  C15           3s      15
  120  C15           2px     15
  121  C15           3px     15
  122  C15           2py     15
  123  C15           3py     15
  124  C15           2pz     15
  125  C15           3pz     15
  126  C16           1s      16
  127  C16           2s      16
  128  C16           3s      16
  129  C16           2px     16
  130  C16           3px     16
  131  C16           2py     16
  132  C16           3py     16
  133  C16           2pz     16
  134  C16           3pz     16
  135  C17           1s      17
  136  C17           2s      17
  137  C17           3s      17
  138  C17           2px     17
  139  C17           3px     17
  140  C17           2py     17
  141  C17           3py     17
  142  C17           2pz     17
  143  C17           3pz     17
  144  H18           1s      18
  145  H18           2s      18
  146  H19           1s      19
  147  H19           2s      19
  148  H20           1s      20
  149  H20           2s      20
  150  C21           1s      21
  151  C21           2s      21
  152  C21           3s      21
  153  C21           2px     21
  154  C21           3px     21
  155  C21           2py     21
  156  C21           3py     21
  157  C21           2pz     21
  158  C21           3pz     21
  159  C22           1s      22
  160  C22           2s      22
  161  C22           3s      22
  162  C22           2px     22
  163  C22           3px     22
  164  C22           2py     22
  165  C22           3py     22
  166  C22           2pz     22
  167  C22           3pz     22
  168  H23           1s      23
  169  H23           2s      23
  170  H24           1s      24
  171  H24           2s      24
  172  O25           1s      25
  173  O25           2s      25
  174  O25           3s      25
  175  O25           2px     25
  176  O25           3px     25
  177  O25           2py     25
  178  O25           3py     25
  179  O25           2pz     25
  180  O25           3pz     25
  181  H26           1s      26
  182  H26           2s      26
  183  H27           1s      27
  184  H27           2s      27
  185  H28           1s      28
  186  H28           2s      28
  187  H29           1s      29
  188  H29           2s      29
  189  H30           1s      30
  190  H30           2s      30
  191  H31           1s      31
  192  H31           2s      31
  193  H32           1s      32
  194  H32           2s      32
  195  H33           1s      33
  196  H33           2s      33
  197  H34           1s      34
  198  H34           2s      34
  199  H35           1s      35
  200  H35           2s      35
  201  H36           1s      36
  202  H36           2s      36
  203  H37           1s      37
  204  H37           2s      37
  205  RU38          1s      38
  206  RU38          2s      38
  207  RU38          3s      38
  208  RU38          4s      38
  209  RU38          5s      38
  210  RU38          6s      38
  211  RU38          2px     38
  212  RU38          3px     38
  213  RU38          4px     38
  214  RU38          5px     38
  215  RU38          6px     38
  216  RU38          2py     38
  217  RU38          3py     38
  218  RU38          4py     38
  219  RU38          5py     38
  220  RU38          6py     38
  221  RU38          2pz     38
  222  RU38          3pz     38
  223  RU38          4pz     38
  224  RU38          5pz     38
  225  RU38          6pz     38
  226  RU38          3d2-    38
  227  RU38          4d2-    38
  228  RU38          5d2-    38
  229  RU38          3d1-    38
  230  RU38          4d1-    38
  231  RU38          5d1-    38
  232  RU38          3d0     38
  233  RU38          4d0     38
  234  RU38          5d0     38
  235  RU38          3d1+    38
  236  RU38          4d1+    38
  237  RU38          5d1+    38
  238  RU38          3d2+    38
  239  RU38          4d2+    38
  240  RU38          5d2+    38
  241  H39           1s      39
  242  H39           2s      39

      Basis set specifications :
      Symmetry species        a  
      Basis functions         242
--


            Nuclear Potential Energy           2635.96974447 au

--- Stop Module: gateway at Thu Jul 23 15:10:44 2020 /rc=_RC_ALL_IS_WELL_ ---
*** files: GMe-Cis-CI12-D0-VDZ-SA-CAS1311-Pi-PCM.RICDLib xmldump
    saved to directory /home/ubuntu/newcas/build/calc/200723
--- Module gateway spent 23 seconds ---

--- Start Module: seward at Thu Jul 23 15:10:44 2020 ---

()()()()()()()()()()()()()()()()()()()()()()()()()()()()()()()()()()()()()()()()()()()()()()()()()()

                                              &SEWARD

                                   only a single process is used
                       available to each process: 20 GB of memory, 16 threads
                                             pid: 30805
()()()()()()()()()()()()()()()()()()()()()()()()()()()()()()()()()()()()()()()()()()()()()()()()()()


  Weights used for alignment and distance                     
  mat. size =    39x    1
       15.9949146195700003
       15.9949146195700003
       12.0000000000000000
[...]
        C3           H34            1.000  |   C15          H19            1.000
        N5           C11            1.000  |   C17          C22            1.847
        C6           H10            1.000  |   C6           C13            1.000
        C7           H26            1.000  |   C13          N14            1.000
        C7           H27            1.000  |   C13          C17            1.000
        C7           H28            1.000  |   N14          C16            1.851
        C8           H29            1.000  |   C16          C21            1.000
        C8           H30            1.000  |   C21          C22            1.000
        C8           H31            1.000  |   O2           RU38           0.979
        C11          H35            1.000  |   C3           N5             0.974
        C11          H36            1.000  |   N5           C6             0.973
        C11          H37            1.000  |   N5           RU38           0.979
        C12          O25            1.999  |   P9           RU38           0.979
        C15          H20            1.000  |   C12          RU38           1.953
        C17          H18            1.000  |   N14          RU38           0.979
        C21          H23            1.000  |   C8           P9             0.952
        C22          H24            1.000  |   P9           C15            0.967
        O1           O2             1.934  |
      -------------------------------------------------------------------------------------
      NBO located     83.998 core electrons.
      NBO located     13.341 lone pair electrons.
      NBO located     90.722 electrons involved in   41 bonds.
      The remaining    0.939 electrons are to be considered as diffuse
--

--


  Input file to MOLDEN was generated!


  Input file to MOLDEN was generated!


  Input file to MOLDEN was generated!


  Input file to MOLDEN was generated!


  Input file to MOLDEN was generated!


  Input file to MOLDEN was generated!

      Average orbitals are written to the RASORB file
      Natural orbitals for root   1 are written to the RASORB.1 file
      Natural orbitals for root   2 are written to the RASORB.2 file
      Natural orbitals for root   3 are written to the RASORB.3 file
      Natural orbitals for root   4 are written to the RASORB.4 file
      Natural orbitals for root   5 are written to the RASORB.5 file
      Spin density orbitals for root   1 are written to the SPDORB.1 file
      Spin density orbitals for root   2 are written to the SPDORB.2 file
      Spin density orbitals for root   3 are written to the SPDORB.3 file
      Spin density orbitals for root   4 are written to the SPDORB.4 file
      Spin density orbitals for root   5 are written to the SPDORB.5 file


  Timings
  -------

  - - - - - - - - - - - - - - - - - - - - - - - - - - - - - - - - - -
                                                    time    fraction
  - - - - - - - - - - - - - - - - - - - - - - - - - - - - - - - - - -
  1) Input section                         :        0.54        0.00
     - Input processing                    :        0.54        0.00
     - Create GUGA tables                  :        0.00        0.00
     - Create determinant tables           :        0.00        0.00
  2) Wave function optimization            :     2848.43        0.98
     - transformation section              :      311.19        0.11
       . AO=>MO integral transformation    :        0.00        0.00
       . Fock-matrix generation            :        0.00        0.00
     - CI optimization                     :     2519.85        0.86
       . construct Hdiag                   :        2.27        0.00
       . construct Hsel                    :        5.09        0.00
       . Davidson diagonalization          :      856.87        0.29
         .. sigma vector generation        :      721.52        0.25
            |-> aa/bb 1-electron           :        6.33        0.00
            |-> aa/bb 2-electron           :       29.34        0.01
            \-> alpha-beta                 :       48.99        0.02
                |-> C prefetch             :        1.47        0.00
                |-> matrix multiply        :       45.74        0.02
                \-> S scatter              :        0.76        0.00
         .. HCSCE                          :        0.89        0.00
         .. page_in/page_out               :       83.06        0.03
       . density matrix generation         :     2842.97        0.97
            |-> aa/bb 1-electron           :        3.43        0.00
            |-> aa/bb 2-electron           :       19.06        0.01
            \-> alpha-beta                 :       39.77        0.01
     - orbital optimization                :       17.12        0.01
  3) Output section                        :       71.03        0.02
     - Create/update the file RELAX        :       61.76        0.02
     - Create/update the file RUNFILE      :        0.00        0.00
     - Create/update the file JOBIPH       :        9.27        0.00

  - - - - - - - - - - - - - - - - - - - - - - - - - - - - - - - - - -
     Total                                 :     2920.00        0.00
  - - - - - - - - - - - - - - - - - - - - - - - - - - - - - - - - - -

++ I/O STATISTICS
 
  I. General I/O information
  - - - - - - - - - - - - - - - - - - - - - - - - - - - - - - - - - - - - - - - - - - -
  Unit  Name          Flsize      Write/Read            MBytes           Write/Read
                      (MBytes)       Calls              In/Out           Time, sec.
  - - - - - - - - - - - - - - - - - - - - - - - - - - - - - - - - - - - - - - - - - - -
   1  RUNFILE          30.84 .    7413/   72400 .    115.4/    729.5 .       0/       0
   2  ONEINT            0.00 .      86/    7983 .     67.8/    696.0 .       0/       0
   3  TRAINT            0.00 .      44/      41 .     59.0/     55.0 .       0/       0
   4  TEMP01            0.00 .       0/       0 .      0.0/      0.0 .       0/       0
   5  TEMP02            0.00 .     192/    1368 .     22.3/    159.1 .       0/       0
   6  JOBIPH            0.00 .    1303/     899 .    199.9/    383.6 .       0/       0
   7  CHRED             0.48 .       0/      92 .      0.0/     10.9 .       0/       0
   8  CHVEC1          203.91 .       0/    1628 .      0.0/   8972.2 .       0/       1
   9  CHORST            0.03 .       0/      12 .      0.0/      0.0 .       0/       0
  10  CHOMAP            0.01 .       0/       0 .      0.0/      0.0 .       0/       0
  11  CIDIA            11.63 .     454/     454 .     61.7/     61.7 .       0/       0
  12  LUCVECT           5.82 .    7256/   11306 .   1055.1/   1840.2 .       0/       0
  13  HCFILE            1.16 .    1856/    1402 .    269.9/    269.9 .       0/       0
  14  LUSC1             2.33 .    4756/    6848 .    595.6/    993.4 .       0/       0
  15  LUSC2             2.33 .    2130/    2860 .    261.7/    383.9 .       0/       0
  16  LUSC3             2.33 .    1650/    1650 .    191.9/    191.9 .       0/       0
  17  LUSC34            1.16 .    5400/    5412 .    785.2/   1049.2 .       0/       0
  18  LUSC35            0.00 .       0/       0 .      0.0/      0.0 .       0/       0
  19  LUSC36            0.00 .       0/       0 .      0.0/      0.0 .       0/       0
  20  LUSC37            0.00 .       0/       0 .      0.0/      0.0 .       0/       0
  21  LUSC38            0.00 .       0/       0 .      0.0/      0.0 .       0/       0
  22  LUSC39            0.00 .       0/       0 .      0.0/      0.0 .       0/       0
  23  LUSC40            0.00 .       0/       0 .      0.0/      0.0 .       0/       0
  24  LUMOUT            0.00 .       0/       0 .      0.0/      0.0 .       0/       0
  25  CHODIAG           0.22 .       0/      44 .      0.0/      9.9 .       0/       0
  26  .RUNTMP           0.51 .    1806/   14534 .     41.3/    135.5 .       0/       0
  - - - - - - - - - - - - - - - - - - - - - - - - - - - - - - - - - - - - - - - - - - -
   *  TOTAL           262.76 .   34346/  128933 .   3726.6/  15942.0 .       1/       3
  - - - - - - - - - - - - - - - - - - - - - - - - - - - - - - - - - - - - - - - - - - -
 
  II. I/O Access Patterns
  - - - - - - - - - - - - - - - - - - - -
  Unit  Name               % of random
                         Write/Read calls
  - - - - - - - - - - - - - - - - - - - -
   1  RUNFILE             28.6/  11.1
   2  ONEINT             100.0/   7.1
   3  TRAINT              97.7/ 100.0
   4  TEMP01               0.0/   0.0
   5  TEMP02              99.5/ 100.0
   6  JOBIPH              96.9/  99.9
   7  CHRED                0.0/  47.8
   8  CHVEC1               0.0/   2.6
   9  CHORST               0.0/   0.0
  10  CHOMAP               0.0/   0.0
  11  CIDIA                9.5/   9.7
  12  LUCVECT             12.4/  14.0
  13  HCFILE              12.4/  16.5
  14  LUSC1                8.4/  10.8
  15  LUSC2                7.9/   9.6
  16  LUSC3                6.6/   6.7
  17  LUSC34              12.5/  16.7
  18  LUSC35               0.0/   0.0
  19  LUSC36               0.0/   0.0
  20  LUSC37               0.0/   0.0
  21  LUSC38               0.0/   0.0
  22  LUSC39               0.0/   0.0
  23  LUSC40               0.0/   0.0
  24  LUMOUT               0.0/   0.0
  25  CHODIAG              0.0/   0.0
  26  .RUNTMP             28.6/   8.0
  - - - - - - - - - - - - - - - - - - - -
--
 ###############################################################################
 ###############################################################################
 ###                                                                         ###
 ###                                                                         ###
 ###    WARNING: RunFile label BirthCertificate                              ###
 ###    was used       67 times                                              ###
 ###                                                                         ###
 ###                                                                         ###
 ###############################################################################
 ###############################################################################
 ###############################################################################
 ###############################################################################
 ###                                                                         ###
 ###                                                                         ###
 ###    WARNING: RunFile label D1ao                                          ###
 ###    was used       54 times                                              ###
 ###                                                                         ###
 ###                                                                         ###
 ###############################################################################
 ###############################################################################
 ###############################################################################
 ###############################################################################
 ###                                                                         ###
 ###                                                                         ###
 ###    WARNING: RunFile label Unique Coordinat                              ###
 ###    was used       69 times                                              ###
 ###                                                                         ###
 ###                                                                         ###
 ###############################################################################
 ###############################################################################
 ###############################################################################
 ###############################################################################
 ###                                                                         ###
 ###                                                                         ###
 ###    WARNING: RunFile label PotNuc00                                      ###
 ###    was used       43 times                                              ###
 ###                                                                         ###
 ###                                                                         ###
 ###############################################################################
 ###############################################################################
 ###############################################################################
 ###############################################################################
 ###                                                                         ###
 ###                                                                         ###
 ###    WARNING: RunFile label h1_raw                                        ###
 ###    was used       43 times                                              ###
 ###                                                                         ###
 ###                                                                         ###
 ###############################################################################
 ###############################################################################
 ###############################################################################
 ###############################################################################
 ###                                                                         ###
 ###                                                                         ###
 ###    WARNING: RunFile label h1    XX                                      ###
 ###    was used       86 times                                              ###
 ###                                                                         ###
 ###                                                                         ###
 ###############################################################################
 ###############################################################################
 ###############################################################################
 ###############################################################################
 ###                                                                         ###
 ###                                                                         ###
 ###    WARNING: RunFile label PotNucXX                                      ###
 ###    was used       43 times                                              ###
 ###                                                                         ###
 ###                                                                         ###
 ###############################################################################
 ###############################################################################
 ###############################################################################
 ###############################################################################
 ###                                                                         ###
 ###                                                                         ###
 ###    WARNING: RunFile label PotNuc                                        ###
 ###    was used       44 times                                              ###
 ###                                                                         ###
 ###                                                                         ###
 ###############################################################################
 ###############################################################################
 ###############################################################################
 ###############################################################################
 ###                                                                         ###
 ###                                                                         ###
 ###    WARNING: RunFile label nBas                                          ###
 ###    was used       44 times                                              ###
 ###                                                                         ###
 ###                                                                         ###
 ###############################################################################
 ###############################################################################
 ###############################################################################
 ###############################################################################
 ###                                                                         ###
 ###                                                                         ###
 ###    WARNING: RunFile label System BitSwitch                              ###
 ###    was used       87 times                                              ###
 ###                                                                         ###
 ###                                                                         ###
 ###############################################################################
 ###############################################################################
 ###############################################################################
 ###############################################################################
 ###                                                                         ###
 ###                                                                         ###
 ###    WARNING: RunFile label Unique atoms                                  ###
 ###    was used       45 times                                              ###
 ###                                                                         ###
 ###                                                                         ###
 ###############################################################################
 ###############################################################################
--- Stop Module: rasscf at Thu Jul 23 16:39:10 2020 /rc=_RC_ALL_IS_WELL_ ---
*** files: GMe-Cis-CI12-D0-VDZ-SA-CAS1311-Pi-PCM.LprOrb GMe-Cis-CI12-D0-VDZ-SA-CAS1311-Pi-PCM.rasscf.molden GMe-Cis-CI12-D0-VDZ-SA-CAS1311-Pi-PCM.rasscf.molden.5
           GMe-Cis-CI12-D0-VDZ-SA-CAS1311-Pi-PCM.rasscf.molden.4 GMe-Cis-CI12-D0-VDZ-SA-CAS1311-Pi-PCM.rasscf.molden.3 GMe-Cis-CI12-D0-VDZ-SA-CAS1311-Pi-PCM.rasscf.molden.1
           GMe-Cis-CI12-D0-VDZ-SA-CAS1311-Pi-PCM.rasscf.molden.2 GMe-Cis-CI12-D0-VDZ-SA-CAS1311-Pi-PCM.LoProp.molden GMe-Cis-CI12-D0-VDZ-SA-CAS1311-Pi-PCM.RasOrb.1
           GMe-Cis-CI12-D0-VDZ-SA-CAS1311-Pi-PCM.RasOrb.5 GMe-Cis-CI12-D0-VDZ-SA-CAS1311-Pi-PCM.RasOrb.4 GMe-Cis-CI12-D0-VDZ-SA-CAS1311-Pi-PCM.RasOrb.3
           GMe-Cis-CI12-D0-VDZ-SA-CAS1311-Pi-PCM.RasOrb GMe-Cis-CI12-D0-VDZ-SA-CAS1311-Pi-PCM.RasOrb.2 GMe-Cis-CI12-D0-VDZ-SA-CAS1311-Pi-PCM.rasscf.h5
           GMe-Cis-CI12-D0-VDZ-SA-CAS1311-Pi-PCM.SpdOrb.3 GMe-Cis-CI12-D0-VDZ-SA-CAS1311-Pi-PCM.SpdOrb.2 GMe-Cis-CI12-D0-VDZ-SA-CAS1311-Pi-PCM.SpdOrb.4
           GMe-Cis-CI12-D0-VDZ-SA-CAS1311-Pi-PCM.SpdOrb.1 GMe-Cis-CI12-D0-VDZ-SA-CAS1311-Pi-PCM.SpdOrb.5 xmldump
    saved to directory /home/ubuntu/newcas/build/calc/200723
--- Module rasscf spent 48 minutes 40 seconds ---

.##################.
.# Happy landing! #.
.##################.

    Timing: Wall=5330.06 User=8271.50 System=73.53
*****************************************************************************************
*** WorkDir at /tmp/molcas_calculations/GMe-Cis-CI12-D0-VDZ-SA-CAS1311-Pi-PCM cleaned ***
*****************************************************************************************
