 Entering Gaussian System, Link 0=g16
 Initial command:
 /cluster/chemistry/gaussian/g16/l1.exe "/scratch/js1212.771176/scratch/Gau-18327.inp" -scrdir="/scratch/js1212.771176/scratch/"
 Entering Link 1 = /cluster/chemistry/gaussian/g16/l1.exe PID=     18328.
  
 Copyright (c) 1988,1990,1992,1993,1995,1998,2003,2009,2016,
            Gaussian, Inc.  All Rights Reserved.
  
 This is part of the Gaussian(R) 16 program.  It is based on
 the Gaussian(R) 09 system (copyright 2009, Gaussian, Inc.),
 the Gaussian(R) 03 system (copyright 2003, Gaussian, Inc.),
 the Gaussian(R) 98 system (copyright 1998, Gaussian, Inc.),
 the Gaussian(R) 94 system (copyright 1995, Gaussian, Inc.),
 the Gaussian 92(TM) system (copyright 1992, Gaussian, Inc.),
 the Gaussian 90(TM) system (copyright 1990, Gaussian, Inc.),
 the Gaussian 88(TM) system (copyright 1988, Gaussian, Inc.),
 the Gaussian 86(TM) system (copyright 1986, Carnegie Mellon
 University), and the Gaussian 82(TM) system (copyright 1983,
 Carnegie Mellon University). Gaussian is a federally registered
 trademark of Gaussian, Inc.
  
 This software contains proprietary and confidential information,
 including trade secrets, belonging to Gaussian, Inc.
  
 This software is provided under written license and may be
 used, copied, transmitted, or stored only in accord with that
 written license.
  
 The following legend is applicable only to US Government
 contracts under FAR:
  
                    RESTRICTED RIGHTS LEGEND
  
 Use, reproduction and disclosure by the US Government is
 subject to restrictions as set forth in subparagraphs (a)
 and (c) of the Commercial Computer Software - Restricted
 Rights clause in FAR 52.227-19.
  
 Gaussian, Inc.
 340 Quinnipiac St., Bldg. 40, Wallingford CT 06492
  
  
 ---------------------------------------------------------------
 Warning -- This program may not be used in any manner that
 competes with the business of Gaussian, Inc. or will provide
 assistance to any competitor of Gaussian, Inc.  The licensee
 of this program is prohibited from giving any competitor of
 Gaussian, Inc. access to this program.  By using this program,
 the user acknowledges that Gaussian, Inc. is engaged in the
 business of creating and licensing software in the field of
 computational chemistry and represents and warrants to the
 licensee that it is not a competitor of Gaussian, Inc. and that
 it will not use this program in any manner prohibited above.
 ---------------------------------------------------------------
  

 Cite this work as:
 Gaussian 16, Revision A.03,
 M. J. Frisch, G. W. Trucks, H. B. Schlegel, G. E. Scuseria, 
 M. A. Robb, J. R. Cheeseman, G. Scalmani, V. Barone, 
 G. A. Petersson, H. Nakatsuji, X. Li, M. Caricato, A. V. Marenich, 
 J. Bloino, B. G. Janesko, R. Gomperts, B. Mennucci, H. P. Hratchian, 
 J. V. Ortiz, A. F. Izmaylov, J. L. Sonnenberg, D. Williams-Young, 
 F. Ding, F. Lipparini, F. Egidi, J. Goings, B. Peng, A. Petrone, 
 T. Henderson, D. Ranasinghe, V. G. Zakrzewski, J. Gao, N. Rega, 
 G. Zheng, W. Liang, M. Hada, M. Ehara, K. Toyota, R. Fukuda, 
 J. Hasegawa, M. Ishida, T. Nakajima, Y. Honda, O. Kitao, H. Nakai, 
 T. Vreven, K. Throssell, J. A. Montgomery, Jr., J. E. Peralta, 
 F. Ogliaro, M. J. Bearpark, J. J. Heyd, E. N. Brothers, K. N. Kudin, 
 V. N. Staroverov, T. A. Keith, R. Kobayashi, J. Normand, 
 K. Raghavachari, A. P. Rendell, J. C. Burant, S. S. Iyengar, 
 J. Tomasi, M. Cossi, J. M. Millam, M. Klene, C. Adamo, R. Cammi, 
 J. W. Ochterski, R. L. Martin, K. Morokuma, O. Farkas, 
 J. B. Foresman, and D. J. Fox, Gaussian, Inc., Wallingford CT, 2016.
 
 ******************************************
 Gaussian 16:  ES64L-G16RevA.03 25-Dec-2016
                28-Aug-2020 
 ******************************************
 %rwf=/scratch/js1212.771176/3-HTrans-D-0-GP-SMD.rwf
 %nosave
 %nprocshared=16
 Will use up to   16 processors via shared memory.
 %mem=3000MB
 %oldchk=/data/js1212/200213_g16/3-HTrans-GPOF-D-0.chk
 %chk=/scratch/js1212.771176/3-HTrans-D-0-GP-SMD.chk
 Copying data from "/data/js1212/200213_g16/3-HTrans-GPOF-D-0.chk" to current chk file "/scratch/js1212.771176/3-HTrans-D-0-GP-SMD.chk"
 IOpt=  2 FromEx=T IUOpen= 4 IOptOp= 5 NList=   0 IFRang= 0 IUIn= 4 IUOut= 2.
 ----------------------------------------------------------------------
 # genecp pbe1pbe EmpiricalDispersion=GD3BJ scrf=(SMD,solvent=water) ge
 om=allcheck
 ----------------------------------------------------------------------
 1/29=7,38=1,172=1/1;
 2/12=2,40=1/2;
 3/5=7,11=2,14=-4,16=1,17=8,25=1,30=1,70=32201,72=1,74=-13,124=41/1,2,3;
 4//1;
 5/5=2,38=5,53=1/2;
 6/7=2,8=2,9=2,10=2,28=1/1;
 99/5=1,9=1/99;
 Structure from the checkpoint file:  "/scratch/js1212.771176/3-HTrans-D-0-GP-SMD.chk"
 -------------------
 Title Card Required
 -------------------
 Charge =  0 Multiplicity = 2
 Redundant internal coordinates found in file.  (old form).
 N,0,-0.6812204424,1.5714446512,-0.1151843257
 C,0,-1.8980458741,2.0724426765,0.1573060882
 C,0,0.2542020054,2.3156695708,-0.7337312176
 C,0,-2.2130043076,3.3950242073,-0.1230549877
 C,0,-1.2332474931,4.2056438045,-0.6946187336
 C,0,0.006668733,3.6598667482,-1.0102382167
 C,0,-2.8301078423,1.0856477455,0.7933335514
 H,0,-3.2079054167,3.7803773527,0.1024096842
 H,0,-1.4448443394,5.2532600543,-0.9153995777
 H,0,0.7774860232,4.2618902191,-1.4927635109
 C,0,1.501758813,1.6052955983,-1.1639386093
 N,0,-2.706045288,-0.2521557849,0.1762033279
 H,0,-3.8689280034,1.4551168434,0.7666989449
 H,0,-2.5472935954,0.9787115358,1.8533510924
 H,0,1.2840480949,1.201616587,-2.168352552
 P,0,1.7944441936,0.0527364269,-0.1721290193
 H,0,2.3653966509,2.2830717777,-1.217169729
 Ru,0,-0.4285118534,-0.4908118857,0.1038667192
 C,0,-3.2642439486,-0.2585208747,-1.1973453487
 C,0,2.9266974422,-1.0089251258,-1.2696771276
 C,0,-3.3749291047,-1.2384439918,1.0572228358
 C,0,2.743157469,0.668240808,1.3608104215
 C,0,2.0535538829,-1.7477273537,-2.285678225
 C,0,3.6198991299,-2.0622934651,-0.4034869324
 C,0,3.9570974054,-0.1703918309,-2.0296464396
 C,0,1.9164047739,1.8064153941,1.9726462018
 C,0,4.1298107826,1.2214452128,1.0280399279
 C,0,2.8810056304,-0.4494161107,2.3992966542
 C,0,-0.414719761,-0.6495732899,1.9331479238
 O,0,-0.4706708597,-0.7760587178,3.0904752116
 H,0,-2.6708602547,0.4567878045,-1.7807276084
 C,0,-4.7565768016,0.0046219834,-1.3175246252
 H,0,-3.0092357226,-1.2336456288,-1.6291553481
 H,0,-2.8864735262,-1.1609630485,2.0389663581
 C,0,-3.2865354465,-2.6640354791,0.5584360388
 H,0,-4.4300183455,-0.9361617197,1.2030369581
 O,0,-0.2993296111,-2.3803818146,-0.1769645539
 O,0,-0.5423012807,-0.3192543099,-1.9559310002
 H,0,-2.23698474,-2.9325402089,0.3488492945
 H,0,-3.8856146403,-2.8283089635,-0.3494915532
 H,0,-3.6753657369,-3.3373977675,1.3366789071
 H,0,-5.0268999541,-0.021202989,-2.3838131823
 H,0,-5.0545091359,0.9944057426,-0.9380976484
 H,0,-5.3696833291,-0.7542842293,-0.8082492959
 H,0,2.7127734609,-2.3866318247,-2.8975534554
 H,0,1.5132613808,-1.0552352497,-2.9438370244
 H,0,1.306153638,-2.3746252001,-1.7759479578
 H,0,4.1174459546,-2.7873471395,-1.0680507773
 H,0,2.8923301632,-2.6179290416,0.2075630934
 H,0,4.3917605552,-1.6374646373,0.2527207765
 H,0,4.575745716,-0.8494975934,-2.6398200338
 H,0,4.6342310544,0.393858402,-1.3767226495
 H,0,3.4750432267,0.5333701786,-2.723973076
 H,0,4.8263021213,0.439019878,0.6986421525
 H,0,4.5563081934,1.6752551004,1.9382129048
 H,0,4.0977296834,2.0069269374,0.2576756529
 H,0,3.5738199353,-1.2357379064,2.0782412029
 H,0,1.9201669215,-0.9195259857,2.6382118404
 H,0,3.2805527953,-0.0159381037,3.3312964676
 H,0,2.3929828053,2.1161209505,2.9169208772
 H,0,0.8867984703,1.5003296859,2.1990864018
 H,0,1.8785126575,2.6903796895,1.3189375624
 H,0,-0.5545931083,-1.2569862946,-2.1962107313
 Recover connectivity data from disk.
                           ----------------------------
                           !    Current Parameters    !
                           ! (Angstroms and Degrees)  !
 --------------------------                            --------------------------
 ! Name  Definition              Value                                          !
 --------------------------------------------------------------------------------
 ! R1    R(1,2)                  1.3438                                         !
 ! R2    R(1,3)                  1.3459                                         !
 ! R3    R(1,18)                 2.0892                                         !
 ! R4    R(2,4)                  1.3882                                         !
 ! R5    R(2,7)                  1.499                                          !
 ! R6    R(3,6)                  1.3945                                         !
 ! R7    R(3,11)                 1.4987                                         !
 ! R8    R(4,5)                  1.3942                                         !
 ! R9    R(4,8)                  1.0905                                         !
 ! R10   R(5,6)                  1.391                                          !
 ! R11   R(5,9)                  1.0913                                         !
 ! R12   R(6,10)                 1.0906                                         !
 ! R13   R(7,12)                 1.4785                                         !
 ! R14   R(7,13)                 1.1029                                         !
 ! R15   R(7,14)                 1.1023                                         !
 ! R16   R(11,15)                1.1042                                         !
 ! R17   R(11,16)                1.8654                                         !
 ! R18   R(11,17)                1.0991                                         !
 ! R19   R(12,19)                1.4827                                         !
 ! R20   R(12,21)                1.482                                          !
 ! R21   R(16,18)                2.305                                          !
 ! R22   R(16,20)                1.901                                          !
 ! R23   R(16,22)                1.9049                                         !
 ! R24   R(18,29)                1.8362                                         !
 ! R25   R(18,37)                1.9147                                         !
 ! R26   R(18,38)                2.0701                                         !
 ! R27   R(19,31)                1.0973                                         !
 ! R28   R(19,32)                1.5201                                         !
 ! R29   R(19,33)                1.0965                                         !
 ! R30   R(20,23)                1.5299                                         !
 ! R31   R(20,24)                1.5298                                         !
 ! R32   R(20,25)                1.5305                                         !
 ! R33   R(21,34)                1.0993                                         !
 ! R34   R(21,35)                1.5129                                         !
 ! R35   R(21,36)                1.1072                                         !
 ! R36   R(22,26)                1.534                                          !
 ! R37   R(22,27)                1.5296                                         !
 ! R38   R(22,28)                1.5319                                         !
 ! R39   R(23,45)                1.1033                                         !
 ! R40   R(23,46)                1.0976                                         !
 ! R41   R(23,47)                1.1007                                         !
 ! R42   R(24,48)                1.1022                                         !
 ! R43   R(24,49)                1.1007                                         !
 ! R44   R(24,50)                1.0986                                         !
 ! R45   R(25,51)                1.1028                                         !
 ! R46   R(25,52)                1.0969                                         !
 ! R47   R(25,53)                1.0999                                         !
 ! R48   R(26,60)                1.1021                                         !
 ! R49   R(26,61)                1.0977                                         !
 ! R50   R(26,62)                1.1001                                         !
 ! R51   R(27,54)                1.0981                                         !
 ! R52   R(27,55)                1.1028                                         !
 ! R53   R(27,56)                1.1007                                         !
 ! R54   R(28,57)                1.0961                                         !
 ! R55   R(28,58)                1.096                                          !
 ! R56   R(28,59)                1.1028                                         !
 ! R57   R(29,30)                1.1656                                         !
 ! R58   R(32,42)                1.1003                                         !
 ! R59   R(32,43)                1.1011                                         !
 ! R60   R(32,44)                1.1005                                         !
 ! R61   R(35,39)                1.1034                                         !
 ! R62   R(35,40)                1.1001                                         !
 ! R63   R(35,41)                1.1001                                         !
 ! R64   R(38,63)                0.9681                                         !
 ! A1    A(2,1,3)              121.0884                                         !
 ! A2    A(2,1,18)             117.1466                                         !
 ! A3    A(3,1,18)             120.6597                                         !
 ! A4    A(1,2,4)              121.3111                                         !
 ! A5    A(1,2,7)              113.8053                                         !
 ! A6    A(4,2,7)              124.8766                                         !
 ! A7    A(1,3,6)              120.0507                                         !
 ! A8    A(1,3,11)             116.6391                                         !
 ! A9    A(6,3,11)             123.2123                                         !
 ! A10   A(2,4,5)              118.5102                                         !
 ! A11   A(2,4,8)              120.1273                                         !
 ! A12   A(5,4,8)              121.3625                                         !
 ! A13   A(4,5,6)              119.4268                                         !
 ! A14   A(4,5,9)              120.3197                                         !
 ! A15   A(6,5,9)              120.2365                                         !
 ! A16   A(3,6,5)              119.4359                                         !
 ! A17   A(3,6,10)             119.6283                                         !
 ! A18   A(5,6,10)             120.9182                                         !
 ! A19   A(2,7,12)             111.4922                                         !
 ! A20   A(2,7,13)             110.7865                                         !
 ! A21   A(2,7,14)             108.2013                                         !
 ! A22   A(12,7,13)            111.8439                                         !
 ! A23   A(12,7,14)            106.9828                                         !
 ! A24   A(13,7,14)            107.3007                                         !
 ! A25   A(3,11,15)            105.6808                                         !
 ! A26   A(3,11,16)            111.8689                                         !
 ! A27   A(3,11,17)            112.067                                          !
 ! A28   A(15,11,16)           102.1401                                         !
 ! A29   A(15,11,17)           109.6525                                         !
 ! A30   A(16,11,17)           114.5629                                         !
 ! A31   A(7,12,19)            111.0376                                         !
 ! A32   A(7,12,21)            108.4313                                         !
 ! A33   A(19,12,21)           112.2068                                         !
 ! A34   A(11,16,18)            96.2351                                         !
 ! A35   A(11,16,20)           104.5542                                         !
 ! A36   A(11,16,22)           103.714                                          !
 ! A37   A(18,16,20)           120.7867                                         !
 ! A38   A(18,16,22)           117.3957                                         !
 ! A39   A(20,16,22)           110.3912                                         !
 ! A40   A(1,18,16)             82.6072                                         !
 ! A41   A(1,18,29)            100.9942                                         !
 ! A42   A(1,18,38)             78.8846                                         !
 ! A43   A(16,18,29)            97.61                                           !
 ! A44   A(16,18,37)            98.632                                          !
 ! A45   A(16,18,38)            85.0852                                         !
 ! A46   A(29,18,37)            93.4562                                         !
 ! A47   A(37,18,38)            86.5345                                         !
 ! A48   A(12,19,31)           106.6267                                         !
 ! A49   A(12,19,32)           116.2382                                         !
 ! A50   A(12,19,33)           106.3249                                         !
 ! A51   A(31,19,32)           112.0862                                         !
 ! A52   A(31,19,33)           104.1571                                         !
 ! A53   A(32,19,33)           110.5558                                         !
 ! A54   A(16,20,23)           108.252                                          !
 ! A55   A(16,20,24)           109.1188                                         !
 ! A56   A(16,20,25)           112.4391                                         !
 ! A57   A(23,20,24)           107.5848                                         !
 ! A58   A(23,20,25)           108.6063                                         !
 ! A59   A(24,20,25)           110.6911                                         !
 ! A60   A(12,21,34)           106.4668                                         !
 ! A61   A(12,21,35)           113.8744                                         !
 ! A62   A(12,21,36)           109.0683                                         !
 ! A63   A(34,21,35)           109.5658                                         !
 ! A64   A(34,21,36)           106.653                                          !
 ! A65   A(35,21,36)           110.8767                                         !
 ! A66   A(16,22,26)           106.9942                                         !
 ! A67   A(16,22,27)           113.1588                                         !
 ! A68   A(16,22,28)           110.7695                                         !
 ! A69   A(26,22,27)           107.8791                                         !
 ! A70   A(26,22,28)           108.6291                                         !
 ! A71   A(27,22,28)           109.2559                                         !
 ! A72   A(20,23,45)           107.8763                                         !
 ! A73   A(20,23,46)           111.9935                                         !
 ! A74   A(20,23,47)           110.7968                                         !
 ! A75   A(45,23,46)           109.0837                                         !
 ! A76   A(45,23,47)           109.4362                                         !
 ! A77   A(46,23,47)           107.6258                                         !
 ! A78   A(20,24,48)           108.427                                          !
 ! A79   A(20,24,49)           111.2476                                         !
 ! A80   A(20,24,50)           112.9733                                         !
 ! A81   A(48,24,49)           107.52                                           !
 ! A82   A(48,24,50)           107.2998                                         !
 ! A83   A(49,24,50)           109.15                                           !
 ! A84   A(20,25,51)           108.3621                                         !
 ! A85   A(20,25,52)           113.695                                          !
 ! A86   A(20,25,53)           111.6511                                         !
 ! A87   A(51,25,52)           107.446                                          !
 ! A88   A(51,25,53)           106.8938                                         !
 ! A89   A(52,25,53)           108.4921                                         !
 ! A90   A(22,26,60)           108.4912                                         !
 ! A91   A(22,26,61)           112.3879                                         !
 ! A92   A(22,26,62)           112.1941                                         !
 ! A93   A(60,26,61)           107.8901                                         !
 ! A94   A(60,26,62)           107.3507                                         !
 ! A95   A(61,26,62)           108.3201                                         !
 ! A96   A(22,27,54)           112.493                                          !
 ! A97   A(22,27,55)           108.6549                                         !
 ! A98   A(22,27,56)           112.5787                                         !
 ! A99   A(54,27,55)           107.1863                                         !
 ! A100  A(54,27,56)           108.4833                                         !
 ! A101  A(55,27,56)           107.1723                                         !
 ! A102  A(22,28,57)           112.4406                                         !
 ! A103  A(22,28,58)           112.447                                          !
 ! A104  A(22,28,59)           108.587                                          !
 ! A105  A(57,28,58)           108.0751                                         !
 ! A106  A(57,28,59)           107.4895                                         !
 ! A107  A(58,28,59)           107.577                                          !
 ! A108  A(19,32,42)           108.2846                                         !
 ! A109  A(19,32,43)           113.2036                                         !
 ! A110  A(19,32,44)           113.0141                                         !
 ! A111  A(42,32,43)           106.7715                                         !
 ! A112  A(42,32,44)           107.1807                                         !
 ! A113  A(43,32,44)           108.0392                                         !
 ! A114  A(21,35,39)           110.3334                                         !
 ! A115  A(21,35,40)           112.3947                                         !
 ! A116  A(21,35,41)           108.837                                          !
 ! A117  A(39,35,40)           108.9582                                         !
 ! A118  A(39,35,41)           108.7602                                         !
 ! A119  A(40,35,41)           107.4556                                         !
 ! A120  A(18,38,63)            99.636                                          !
 ! A121  L(1,18,37,16,-1)      181.2392                                         !
 ! A122  L(29,18,38,1,-1)      179.8788                                         !
 ! A123  L(18,29,30,7,-1)      178.0514                                         !
 ! A124  L(1,18,37,16,-2)      194.8685                                         !
 ! A125  L(29,18,38,1,-2)      182.7768                                         !
 ! A126  L(18,29,30,7,-2)      176.9311                                         !
 ! D1    D(3,1,2,4)             -3.4824                                         !
 ! D2    D(3,1,2,7)            177.4369                                         !
 ! D3    D(18,1,2,4)          -171.5383                                         !
 ! D4    D(18,1,2,7)             9.381                                          !
 ! D5    D(2,1,3,6)              4.9773                                         !
 ! D6    D(2,1,3,11)          -171.5416                                         !
 ! D7    D(18,1,3,6)           172.6153                                         !
 ! D8    D(18,1,3,11)           -3.9036                                         !
 ! D9    D(2,1,18,16)         -169.7335                                         !
 ! D10   D(2,1,18,29)          -73.3704                                         !
 ! D11   D(2,1,18,38)          103.8528                                         !
 ! D12   D(3,1,18,16)           22.1565                                         !
 ! D13   D(3,1,18,29)          118.5197                                         !
 ! D14   D(3,1,18,38)          -64.2572                                         !
 ! D15   D(1,2,4,5)             -0.2103                                         !
 ! D16   D(1,2,4,8)            179.7528                                         !
 ! D17   D(7,2,4,5)            178.7644                                         !
 ! D18   D(7,2,4,8)             -1.2725                                         !
 ! D19   D(1,2,7,12)           -40.6561                                         !
 ! D20   D(1,2,7,13)          -165.9093                                         !
 ! D21   D(1,2,7,14)            76.7256                                         !
 ! D22   D(4,2,7,12)           140.3013                                         !
 ! D23   D(4,2,7,13)            15.0481                                         !
 ! D24   D(4,2,7,14)          -102.3171                                         !
 ! D25   D(1,3,6,5)             -2.7972                                         !
 ! D26   D(1,3,6,10)           178.7146                                         !
 ! D27   D(11,3,6,5)           173.4834                                         !
 ! D28   D(11,3,6,10)           -5.0049                                         !
 ! D29   D(1,3,11,15)           87.1811                                         !
 ! D30   D(1,3,11,16)          -23.1867                                         !
 ! D31   D(1,3,11,17)         -153.4304                                         !
 ! D32   D(6,3,11,15)          -89.2173                                         !
 ! D33   D(6,3,11,16)          160.415                                          !
 ! D34   D(6,3,11,17)           30.1713                                         !
 ! D35   D(2,4,5,6)              2.287                                          !
 ! D36   D(2,4,5,9)           -179.212                                          !
 ! D37   D(8,4,5,6)           -177.6756                                         !
 ! D38   D(8,4,5,9)              0.8253                                         !
 ! D39   D(4,5,6,3)             -0.8203                                         !
 ! D40   D(4,5,6,10)           177.648                                          !
 ! D41   D(9,5,6,3)           -179.3225                                         !
 ! D42   D(9,5,6,10)            -0.8543                                         !
 ! D43   D(2,7,12,19)          -70.6551                                         !
 ! D44   D(2,7,12,21)          165.6331                                         !
 ! D45   D(13,7,12,19)          54.008                                          !
 ! D46   D(13,7,12,21)         -69.7038                                         !
 ! D47   D(14,7,12,19)         171.2289                                         !
 ! D48   D(14,7,12,21)          47.5171                                         !
 ! D49   D(3,11,16,18)          33.8875                                         !
 ! D50   D(3,11,16,20)         157.9658                                         !
 ! D51   D(3,11,16,22)         -86.3189                                         !
 ! D52   D(15,11,16,18)        -78.7089                                         !
 ! D53   D(15,11,16,20)         45.3694                                         !
 ! D54   D(15,11,16,22)        161.0847                                         !
 ! D55   D(17,11,16,18)        162.8305                                         !
 ! D56   D(17,11,16,20)        -73.0912                                         !
 ! D57   D(17,11,16,22)         42.6241                                         !
 ! D58   D(7,12,19,31)          61.6067                                         !
 ! D59   D(7,12,19,32)         -64.1731                                         !
 ! D60   D(7,12,19,33)         172.3045                                         !
 ! D61   D(21,12,19,31)       -176.8664                                         !
 ! D62   D(21,12,19,32)         57.3538                                         !
 ! D63   D(21,12,19,33)        -66.1686                                         !
 ! D64   D(7,12,21,34)         -57.4959                                         !
 ! D65   D(7,12,21,35)        -178.3408                                         !
 ! D66   D(7,12,21,36)          57.2348                                         !
 ! D67   D(19,12,21,34)        179.4963                                         !
 ! D68   D(19,12,21,35)         58.6513                                         !
 ! D69   D(19,12,21,36)        -65.7731                                         !
 ! D70   D(11,16,18,1)         -26.4926                                         !
 ! D71   D(11,16,18,29)       -126.6691                                         !
 ! D72   D(11,16,18,37)        138.6389                                         !
 ! D73   D(11,16,18,38)         52.9068                                         !
 ! D74   D(20,16,18,1)        -137.5531                                         !
 ! D75   D(20,16,18,29)        122.2704                                         !
 ! D76   D(20,16,18,37)         27.5784                                         !
 ! D77   D(20,16,18,38)        -58.1537                                         !
 ! D78   D(22,16,18,1)          82.487                                          !
 ! D79   D(22,16,18,29)        -17.6894                                         !
 ! D80   D(22,16,18,37)       -112.3815                                         !
 ! D81   D(22,16,18,38)        161.8864                                         !
 ! D82   D(11,16,20,23)        -82.5351                                         !
 ! D83   D(11,16,20,24)        160.6561                                         !
 ! D84   D(11,16,20,25)         37.4437                                         !
 ! D85   D(18,16,20,23)         24.0418                                         !
 ! D86   D(18,16,20,24)        -92.767                                          !
 ! D87   D(18,16,20,25)        144.0206                                         !
 ! D88   D(22,16,20,23)        166.4986                                         !
 ! D89   D(22,16,20,24)         49.6898                                         !
 ! D90   D(22,16,20,25)        -73.5226                                         !
 ! D91   D(11,16,22,26)         52.9866                                         !
 ! D92   D(11,16,22,27)        -65.6918                                         !
 ! D93   D(11,16,22,28)        171.2256                                         !
 ! D94   D(18,16,22,26)        -51.6323                                         !
 ! D95   D(18,16,22,27)       -170.3107                                         !
 ! D96   D(18,16,22,28)         66.6067                                         !
 ! D97   D(20,16,22,26)        164.4973                                         !
 ! D98   D(20,16,22,27)         45.8189                                         !
 ! D99   D(20,16,22,28)        -77.2637                                         !
 ! D100  D(1,18,38,63)        -173.3289                                         !
 ! D101  D(16,18,38,63)        103.2586                                         !
 ! D102  D(37,18,38,63)          4.2765                                         !
 ! D103  D(12,19,32,42)        179.5216                                         !
 ! D104  D(12,19,32,43)         61.3386                                         !
 ! D105  D(12,19,32,44)        -61.9011                                         !
 ! D106  D(31,19,32,42)         56.5468                                         !
 ! D107  D(31,19,32,43)        -61.6361                                         !
 ! D108  D(31,19,32,44)        175.1242                                         !
 ! D109  D(33,19,32,42)        -59.1789                                         !
 ! D110  D(33,19,32,43)       -177.3618                                         !
 ! D111  D(33,19,32,44)         59.3985                                         !
 ! D112  D(16,20,23,45)       -178.1882                                         !
 ! D113  D(16,20,23,46)         61.7611                                         !
 ! D114  D(16,20,23,47)        -58.4193                                         !
 ! D115  D(24,20,23,45)        -60.3935                                         !
 ! D116  D(24,20,23,46)        179.5557                                         !
 ! D117  D(24,20,23,47)         59.3754                                         !
 ! D118  D(25,20,23,45)         59.4601                                         !
 ! D119  D(25,20,23,46)        -60.5906                                         !
 ! D120  D(25,20,23,47)        179.229                                          !
 ! D121  D(16,20,24,48)        169.3                                            !
 ! D122  D(16,20,24,49)         51.2656                                         !
 ! D123  D(16,20,24,50)        -71.9043                                         !
 ! D124  D(23,20,24,48)         52.0682                                         !
 ! D125  D(23,20,24,49)        -65.9662                                         !
 ! D126  D(23,20,24,50)        170.8639                                         !
 ! D127  D(25,20,24,48)        -66.4528                                         !
 ! D128  D(25,20,24,49)        175.5128                                         !
 ! D129  D(25,20,24,50)         52.3429                                         !
 ! D130  D(16,20,25,51)        179.8911                                         !
 ! D131  D(16,20,25,52)         60.5082                                         !
 ! D132  D(16,20,25,53)        -62.6449                                         !
 ! D133  D(23,20,25,51)        -60.3356                                         !
 ! D134  D(23,20,25,52)       -179.7185                                         !
 ! D135  D(23,20,25,53)         57.1284                                         !
 ! D136  D(24,20,25,51)         57.5631                                         !
 ! D137  D(24,20,25,52)        -61.8197                                         !
 ! D138  D(24,20,25,53)        175.0271                                         !
 ! D139  D(12,21,35,39)         52.5909                                         !
 ! D140  D(12,21,35,40)        -69.241                                          !
 ! D141  D(12,21,35,41)        171.8533                                         !
 ! D142  D(34,21,35,39)        -66.5059                                         !
 ! D143  D(34,21,35,40)        171.6622                                         !
 ! D144  D(34,21,35,41)         52.7565                                         !
 ! D145  D(36,21,35,39)        176.0386                                         !
 ! D146  D(36,21,35,40)         54.2067                                         !
 ! D147  D(36,21,35,41)        -64.699                                          !
 ! D148  D(16,22,26,60)        174.5817                                         !
 ! D149  D(16,22,26,61)         55.3674                                         !
 ! D150  D(16,22,26,62)        -66.9904                                         !
 ! D151  D(27,22,26,60)        -63.3658                                         !
 ! D152  D(27,22,26,61)        177.4199                                         !
 ! D153  D(27,22,26,62)         55.0621                                         !
 ! D154  D(28,22,26,60)         54.9563                                         !
 ! D155  D(28,22,26,61)        -64.2581                                         !
 ! D156  D(28,22,26,62)        173.3842                                         !
 ! D157  D(16,22,27,54)        -68.8723                                         !
 ! D158  D(16,22,27,55)        172.6163                                         !
 ! D159  D(16,22,27,56)         54.07                                           !
 ! D160  D(26,22,27,54)        172.9629                                         !
 ! D161  D(26,22,27,55)         54.4515                                         !
 ! D162  D(26,22,27,56)        -64.0948                                         !
 ! D163  D(28,22,27,54)         55.0434                                         !
 ! D164  D(28,22,27,55)        -63.4681                                         !
 ! D165  D(28,22,27,56)        177.9857                                         !
 ! D166  D(16,22,28,57)         70.5282                                         !
 ! D167  D(16,22,28,58)        -51.736                                          !
 ! D168  D(16,22,28,59)       -170.6602                                         !
 ! D169  D(26,22,28,57)       -172.2317                                         !
 ! D170  D(26,22,28,58)         65.5041                                         !
 ! D171  D(26,22,28,59)        -53.4201                                         !
 ! D172  D(27,22,28,57)        -54.7836                                         !
 ! D173  D(27,22,28,58)       -177.0478                                         !
 ! D174  D(27,22,28,59)         64.0279                                         !
 --------------------------------------------------------------------------------
 Stoichiometry    C20H36N2O3PRu(2)
 Framework group  C1[X(C20H36N2O3PRu)]
 Deg. of freedom   183
 Full point group                 C1      NOp   1
 Largest Abelian subgroup         C1      NOp   1
 Largest concise Abelian subgroup C1      NOp   1
                         Standard orientation:                         
 ---------------------------------------------------------------------
 Center     Atomic      Atomic             Coordinates (Angstroms)
 Number     Number       Type             X           Y           Z
 ---------------------------------------------------------------------
      1          7           0       -0.735499    1.421249   -0.022084
      2          6           0       -1.967498    1.864556    0.280525
      3          6           0        0.173400    2.231700   -0.595282
      4          6           0       -2.326523    3.190446    0.080169
      5          6           0       -1.375385    4.065783   -0.442168
      6          6           0       -0.118938    3.581150   -0.790525
      7          6           0       -2.865008    0.811167    0.856616
      8          1           0       -3.333024    3.528526    0.328797
      9          1           0       -1.621904    5.117192   -0.599596
     10          1           0        0.630459    4.236143   -1.236405
     11          6           0        1.442625    1.589979   -1.067900
     12          7           0       -2.698455   -0.482403    0.160271
     13          1           0       -3.915494    1.147065    0.852667
     14          1           0       -2.576250    0.650267    1.908180
     15          1           0        1.235886    1.240277   -2.094628
     16         15           0        1.788692   -0.008739   -0.171166
     17          1           0        2.283342    2.297874   -1.080757
     18         44           0       -0.414480   -0.640960    0.072719
     19          6           0       -3.259478   -0.424834   -1.210933
     20          6           0        2.952624   -0.964721   -1.330949
     21          6           0       -3.332352   -1.541285    0.980825
     22          6           0        2.720344    0.544742    1.395515
     23          6           0        2.101818   -1.669707   -2.389056
     24          6           0        3.682243   -2.044662   -0.529836
     25          6           0        3.952999   -0.048568   -2.039699
     26          6           0        1.858046    1.616266    2.074914
     27          6           0        4.087213    1.162386    1.095913
     28          6           0        2.897448   -0.628005    2.365006
     29          6           0       -0.391021   -0.908567    1.889172
     30          8           0       -0.439963   -1.105991    3.036850
     31          1           0       -2.691393    0.343367   -1.750611
     32          6           0       -4.759956   -0.204379   -1.314434
     33          1           0       -2.973545   -1.363363   -1.700589
     34          1           0       -2.844328   -1.506718    1.965229
     35          6           0       -3.198270   -2.930710    0.397359
     36          1           0       -4.396466   -1.283293    1.144990
     37          8           0       -0.223822   -2.504996   -0.321042
     38          8           0       -0.538864   -0.350068   -1.973022
     39          1           0       -2.140958   -3.151364    0.171566
     40          1           0       -3.793819   -3.059946   -0.518520
     41          1           0       -3.562821   -3.661992    1.133972
     42          1           0       -5.031872   -0.175140   -2.380229
     43          1           0       -5.089399    0.750498   -0.876168
     44          1           0       -5.346497   -1.012283   -0.851336
     45          1           0        2.780231   -2.248662   -3.038461
     46          1           0        1.537414   -0.957220   -3.004234
     47          1           0        1.376710   -2.350374   -1.917522
     48          1           0        4.201781   -2.711743   -1.236931
     49          1           0        2.974855   -2.659654    0.047102
     50          1           0        4.441288   -1.634686    0.150332
     51          1           0        4.592192   -0.669071   -2.689800
     52          1           0        4.612768    0.497572   -1.354401
     53          1           0        3.446343    0.679255   -2.690330
     54          1           0        4.808292    0.424542    0.719848
     55          1           0        4.500745    1.574645    2.031483
     56          1           0        4.027409    1.991153    0.374082
     57          1           0        3.615000   -1.370357    1.997036
     58          1           0        1.953197   -1.143062    2.575716
     59          1           0        3.284767   -0.238228    3.321156
     60          1           0        2.326459    1.884368    3.035855
     61          1           0        0.839632    1.263325    2.283044
     62          1           0        1.789474    2.536099    1.475440
     63          1           0       -0.520851   -1.271601   -2.269129
 ---------------------------------------------------------------------
 Rotational constants (GHZ):           0.2490604           0.1548118           0.1342958
 General basis read from cards:  (5D, 7F)
 ======================================================================================================
                                       Pseudopotential Parameters
 ======================================================================================================
  Center     Atomic      Valence      Angular      Power
  Number     Number     Electrons     Momentum     of R      Exponent        Coefficient   SO-Coeffient
 ======================================================================================================
    1          7
                                   No pseudopotential on this center.
    2          6
                                   No pseudopotential on this center.
    3          6
                                   No pseudopotential on this center.
    4          6
                                   No pseudopotential on this center.
    5          6
                                   No pseudopotential on this center.
    6          6
                                   No pseudopotential on this center.
    7          6
                                   No pseudopotential on this center.
    8          1
                                   No pseudopotential on this center.
    9          1
                                   No pseudopotential on this center.
   10          1
                                   No pseudopotential on this center.
   11          6
                                   No pseudopotential on this center.
   12          7
                                   No pseudopotential on this center.
   13          1
                                   No pseudopotential on this center.
   14          1
                                   No pseudopotential on this center.
   15          1
                                   No pseudopotential on this center.
   16         15
                                   No pseudopotential on this center.
   17          1
                                   No pseudopotential on this center.
   18         44           16
                                      G and up 
                                                     2        1.0000000        0.00000000    0.00000000
                                      S - G
                                                     2       11.1052690      209.82297100    0.00000000
                                                     2        5.4147450       30.65472600    0.00000000
                                      P - G
                                                     2        9.7712710      146.33618200    0.00000000
                                                     2        5.0739910       24.12787700    0.00000000
                                      D - G
                                                     2        7.6714230       67.51589700    0.00000000
                                                     2        4.1365650        9.87010400    0.00000000
                                      F - G
                                                     2       11.3600000      -28.34061600    0.00000000
                                                     2        5.6800000       -4.94462900    0.00000000
   19          6
                                   No pseudopotential on this center.
   20          6
                                   No pseudopotential on this center.
   21          6
                                   No pseudopotential on this center.
   22          6
                                   No pseudopotential on this center.
   23          6
                                   No pseudopotential on this center.
   24          6
                                   No pseudopotential on this center.
   25          6
                                   No pseudopotential on this center.
   26          6
                                   No pseudopotential on this center.
   27          6
                                   No pseudopotential on this center.
   28          6
                                   No pseudopotential on this center.
   29          6
                                   No pseudopotential on this center.
   30          8
                                   No pseudopotential on this center.
   31          1
                                   No pseudopotential on this center.
   32          6
                                   No pseudopotential on this center.
   33          1
                                   No pseudopotential on this center.
   34          1
                                   No pseudopotential on this center.
   35          6
                                   No pseudopotential on this center.
   36          1
                                   No pseudopotential on this center.
   37          8
                                   No pseudopotential on this center.
   38          8
                                   No pseudopotential on this center.
   39          1
                                   No pseudopotential on this center.
   40          1
                                   No pseudopotential on this center.
   41          1
                                   No pseudopotential on this center.
   42          1
                                   No pseudopotential on this center.
   43          1
                                   No pseudopotential on this center.
   44          1
                                   No pseudopotential on this center.
   45          1
                                   No pseudopotential on this center.
   46          1
                                   No pseudopotential on this center.
   47          1
                                   No pseudopotential on this center.
   48          1
                                   No pseudopotential on this center.
   49          1
                                   No pseudopotential on this center.
   50          1
                                   No pseudopotential on this center.
   51          1
                                   No pseudopotential on this center.
   52          1
                                   No pseudopotential on this center.
   53          1
                                   No pseudopotential on this center.
   54          1
                                   No pseudopotential on this center.
   55          1
                                   No pseudopotential on this center.
   56          1
                                   No pseudopotential on this center.
   57          1
                                   No pseudopotential on this center.
   58          1
                                   No pseudopotential on this center.
   59          1
                                   No pseudopotential on this center.
   60          1
                                   No pseudopotential on this center.
   61          1
                                   No pseudopotential on this center.
   62          1
                                   No pseudopotential on this center.
   63          1
                                   No pseudopotential on this center.
 ======================================================================================================
 There are  1493 symmetry adapted cartesian basis functions of A   symmetry.
 There are  1324 symmetry adapted basis functions of A   symmetry.
  1324 basis functions,  2072 primitive gaussians,  1493 cartesian basis functions
   113 alpha electrons      112 beta electrons
       nuclear repulsion energy      3472.6946136602 Hartrees.
 NAtoms=   63 NActive=   63 NUniq=   63 SFac= 1.00D+00 NAtFMM=   60 NAOKFM=T Big=T
 Integral buffers will be    131072 words long.
 Raffenetti 2 integral format.
 Two-electron integral symmetry is turned on.
 Nuclear repulsion after empirical dispersion term =     3472.5989061012 Hartrees.
 ------------------------------------------------------------------------------
 Polarizable Continuum Model (PCM)
 =================================
 Model                : PCM.
 Atomic radii         : SMD-Coulomb.
 Polarization charges : Total charges.
 Charge compensation  : None.
 Solution method      : On-the-fly selection.
 Cavity type          : VdW (van der Waals Surface) (Alpha=1.000).
 Cavity algorithm     : GePol (No added spheres)
                        Default sphere list used, NSphG=   63.
                        Lebedev-Laikov grids with approx.  5.0 points / Ang**2.
                        Smoothing algorithm: York/Karplus (Gamma=1.0000).
                        Polarization charges: spherical gaussians, with
                                              point-specific exponents (IZeta= 3).
                        Self-potential: point-specific (ISelfS= 7).
                        Self-field    : sphere-specific E.n sum rule (ISelfD= 2).
 Solvent              : Water, Eps=  78.355300 Eps(inf)=   1.777849
 ------------------------------------------------------------------------------
 ------------------------------------------------------------------------------
 Atomic radii for non-electrostatic terms: SMD-CDS.
 ------------------------------------------------------------------------------
 Nuclear repulsion after PCM non-electrostatic terms =     3472.6155482945 Hartrees.
 One-electron integrals computed using PRISM.
   1 Symmetry operations used in ECPInt.
 ECPInt:  NShTT=  121278 NPrTT=  436029 LenC2=  104415 LenP2D=  244777.
 LDataN:  DoStor=T MaxTD1= 7 Len=  274
 Number of processors reduced to  11 by ecpmxn.
 NBasis=  1324 RedAO= T EigKep=  3.89D-05  NBF=  1324
 NBsUse=  1324 1.00D-06 EigRej= -1.00D+00 NBFU=  1324
 Defaulting to unpruned grid for atomic number  44.
 ExpMin= 1.60D-02 ExpMax= 3.12D+05 ExpMxC= 9.87D+02 IAcc=3 IRadAn=         5 AccDes= 0.00D+00
 Harris functional with IExCor= 1009 and IRadAn=       5 diagonalized for initial guess.
 HarFok:  IExCor= 1009 AccDes= 0.00D+00 IRadAn=         5 IDoV= 1 UseB2=F ITyADJ=14
 ICtDFT=  3500011 ScaDFX=  1.000000  1.000000  1.000000  1.000000
 Defaulting to unpruned grid for atomic number  44.
 FoFCou: FMM=F IPFlag=           0 FMFlag=      100000 FMFlg1=        2001
         NFxFlg=           0 DoJE=T BraDBF=F KetDBF=T FulRan=T
         wScrn=  0.000000 ICntrl=       500 IOpCl=  0 I1Cent=   200000004 NGrid=           0
         NMat0=    1 NMatS0=      1 NMatT0=    0 NMatD0=    1 NMtDS0=    0 NMtDT0=    0
 Petite list used in FoFCou.
 Initial guess <Sx>= 0.0000 <Sy>= 0.0000 <Sz>= 0.5000 <S**2>= 0.7500 S= 0.5000
 Requested convergence on RMS density matrix=1.00D-08 within 128 cycles.
 Requested convergence on MAX density matrix=1.00D-06.
 Requested convergence on             energy=1.00D-06.
 No special actions if energy rises.
 Defaulting to unpruned grid for atomic number  44.
 Defaulting to unpruned grid for atomic number  44.
 Defaulting to unpruned grid for atomic number  44.
 Defaulting to unpruned grid for atomic number  44.
 Defaulting to unpruned grid for atomic number  44.
 Defaulting to unpruned grid for atomic number  44.
 Defaulting to unpruned grid for atomic number  44.
 Defaulting to unpruned grid for atomic number  44.
 Defaulting to unpruned grid for atomic number  44.
 Defaulting to unpruned grid for atomic number  44.
 Defaulting to unpruned grid for atomic number  44.
 Defaulting to unpruned grid for atomic number  44.
 Defaulting to unpruned grid for atomic number  44.
 Defaulting to unpruned grid for atomic number  44.
 Defaulting to unpruned grid for atomic number  44.
 Defaulting to unpruned grid for atomic number  44.
 Inv3:  Mode=1 IEnd=    44444403.
 Iteration    1 A*A^-1 deviation from unit magnitude is 1.15D-14 for   1652.
 Iteration    1 A*A^-1 deviation from orthogonality  is 3.95D-15 for   2119   1187.
 Iteration    1 A^-1*A deviation from unit magnitude is 1.09D-14 for   1652.
 Iteration    1 A^-1*A deviation from orthogonality  is 1.36D-14 for   2196   2149.
 EnCoef did    26 forward-backward iterations
 Restarting incremental Fock formation.
 Error on total polarization charges =  0.07979
 SCF Done:  E(UPBE1PBE) =  -1554.35317703     A.U. after   25 cycles
            NFock= 25  Conv=0.14D-08     -V/T= 2.0472
 <Sx>= 0.0000 <Sy>= 0.0000 <Sz>= 0.5000 <S**2>= 0.7608 S= 0.5054
 <L.S>= 0.000000000000E+00
 SMD-CDS (non-electrostatic) energy       (kcal/mol) =      10.44
 (included in total energy above)
 Annihilation of the first spin contaminant:
 S**2 before annihilation     0.7608,   after     0.7501

 **********************************************************************

            Population analysis using the SCF density.

 **********************************************************************

 Orbital symmetries:
 Alpha Orbitals:
       Occupied  (A) (A) (A) (A) (A) (A) (A) (A) (A) (A) (A) (A)
                 (A) (A) (A) (A) (A) (A) (A) (A) (A) (A) (A) (A)
                 (A) (A) (A) (A) (A) (A) (A) (A) (A) (A) (A) (A)
                 (A) (A) (A) (A) (A) (A) (A) (A) (A) (A) (A) (A)
                 (A) (A) (A) (A) (A) (A) (A) (A) (A) (A) (A) (A)
                 (A) (A) (A) (A) (A) (A) (A) (A) (A) (A) (A) (A)
                 (A) (A) (A) (A) (A) (A) (A) (A) (A) (A) (A) (A)
                 (A) (A) (A) (A) (A) (A) (A) (A) (A) (A) (A) (A)
                 (A) (A) (A) (A) (A) (A) (A) (A) (A) (A) (A) (A)
                 (A) (A) (A) (A) (A)
       Virtual   (A) (A) (A) (A) (A) (A) (A) (A) (A) (A) (A) (A)
                 (A) (A) (A) (A) (A) (A) (A) (A) (A) (A) (A) (A)
                 (A) (A) (A) (A) (A) (A) (A) (A) (A) (A) (A) (A)
                 (A) (A) (A) (A) (A) (A) (A) (A) (A) (A) (A) (A)
                 (A) (A) (A) (A) (A) (A) (A) (A) (A) (A) (A) (A)
                 (A) (A) (A) (A) (A) (A) (A) (A) (A) (A) (A) (A)
                 (A) (A) (A) (A) (A) (A) (A) (A) (A) (A) (A) (A)
                 (A) (A) (A) (A) (A) (A) (A) (A) (A) (A) (A) (A)
                 (A) (A) (A) (A) (A) (A) (A) (A) (A) (A) (A) (A)
                 (A) (A) (A) (A) (A) (A) (A) (A) (A) (A) (A) (A)
                 (A) (A) (A) (A) (A) (A) (A) (A) (A) (A) (A) (A)
                 (A) (A) (A) (A) (A) (A) (A) (A) (A) (A) (A) (A)
                 (A) (A) (A) (A) (A) (A) (A) (A) (A) (A) (A) (A)
                 (A) (A) (A) (A) (A) (A) (A) (A) (A) (A) (A) (A)
                 (A) (A) (A) (A) (A) (A) (A) (A) (A) (A) (A) (A)
                 (A) (A) (A) (A) (A) (A) (A) (A) (A) (A) (A) (A)
                 (A) (A) (A) (A) (A) (A) (A) (A) (A) (A) (A) (A)
                 (A) (A) (A) (A) (A) (A) (A) (A) (A) (A) (A) (A)
                 (A) (A) (A) (A) (A) (A) (A) (A) (A) (A) (A) (A)
                 (A) (A) (A) (A) (A) (A) (A) (A) (A) (A) (A) (A)
                 (A) (A) (A) (A) (A) (A) (A) (A) (A) (A) (A) (A)
                 (A) (A) (A) (A) (A) (A) (A) (A) (A) (A) (A) (A)
                 (A) (A) (A) (A) (A) (A) (A) (A) (A) (A) (A) (A)
                 (A) (A) (A) (A) (A) (A) (A) (A) (A) (A) (A) (A)
                 (A) (A) (A) (A) (A) (A) (A) (A) (A) (A) (A) (A)
                 (A) (A) (A) (A) (A) (A) (A) (A) (A) (A) (A) (A)
                 (A) (A) (A) (A) (A) (A) (A) (A) (A) (A) (A) (A)
                 (A) (A) (A) (A) (A) (A) (A) (A) (A) (A) (A) (A)
                 (A) (A) (A) (A) (A) (A) (A) (A) (A) (A) (A) (A)
                 (A) (A) (A) (A) (A) (A) (A) (A) (A) (A) (A) (A)
                 (A) (A) (A) (A) (A) (A) (A) (A) (A) (A) (A) (A)
                 (A) (A) (A) (A) (A) (A) (A) (A) (A) (A) (A) (A)
                 (A) (A) (A) (A) (A) (A) (A) (A) (A) (A) (A) (A)
                 (A) (A) (A) (A) (A) (A) (A) (A) (A) (A) (A) (A)
                 (A) (A) (A) (A) (A) (A) (A) (A) (A) (A) (A) (A)
                 (A) (A) (A) (A) (A) (A) (A) (A) (A) (A) (A) (A)
                 (A) (A) (A) (A) (A) (A) (A) (A) (A) (A) (A) (A)
                 (A) (A) (A) (A) (A) (A) (A) (A) (A) (A) (A) (A)
                 (A) (A) (A) (A) (A) (A) (A) (A) (A) (A) (A) (A)
                 (A) (A) (A) (A) (A) (A) (A) (A) (A) (A) (A) (A)
                 (A) (A) (A) (A) (A) (A) (A) (A) (A) (A) (A) (A)
                 (A) (A) (A) (A) (A) (A) (A) (A) (A) (A) (A) (A)
                 (A) (A) (A) (A) (A) (A) (A) (A) (A) (A) (A) (A)
                 (A) (A) (A) (A) (A) (A) (A) (A) (A) (A) (A) (A)
                 (A) (A) (A) (A) (A) (A) (A) (A) (A) (A) (A) (A)
                 (A) (A) (A) (A) (A) (A) (A) (A) (A) (A) (A) (A)
                 (A) (A) (A) (A) (A) (A) (A) (A) (A) (A) (A) (A)
                 (A) (A) (A) (A) (A) (A) (A) (A) (A) (A) (A) (A)
                 (A) (A) (A) (A) (A) (A) (A) (A) (A) (A) (A) (A)
                 (A) (A) (A) (A) (A) (A) (A) (A) (A) (A) (A) (A)
                 (A) (A) (A) (A) (A) (A) (A) (A) (A) (A) (A) (A)
                 (A) (A) (A) (A) (A) (A) (A) (A) (A) (A) (A) (A)
                 (A) (A) (A) (A) (A) (A) (A) (A) (A) (A) (A) (A)
                 (A) (A) (A) (A) (A) (A) (A) (A) (A) (A) (A) (A)
                 (A) (A) (A) (A) (A) (A) (A) (A) (A) (A) (A) (A)
                 (A) (A) (A) (A) (A) (A) (A) (A) (A) (A) (A) (A)
                 (A) (A) (A) (A) (A) (A) (A) (A) (A) (A) (A) (A)
                 (A) (A) (A) (A) (A) (A) (A) (A) (A) (A) (A) (A)
                 (A) (A) (A) (A) (A) (A) (A) (A) (A) (A) (A) (A)
                 (A) (A) (A) (A) (A) (A) (A) (A) (A) (A) (A) (A)
                 (A) (A) (A) (A) (A) (A) (A) (A) (A) (A) (A) (A)
                 (A) (A) (A) (A) (A) (A) (A) (A) (A) (A) (A) (A)
                 (A) (A) (A) (A) (A) (A) (A) (A) (A) (A) (A) (A)
                 (A) (A) (A) (A) (A) (A) (A) (A) (A) (A) (A) (A)
                 (A) (A) (A) (A) (A) (A) (A) (A) (A) (A) (A) (A)
                 (A) (A) (A) (A) (A) (A) (A) (A) (A) (A) (A) (A)
                 (A) (A) (A) (A) (A) (A) (A) (A) (A) (A) (A) (A)
                 (A) (A) (A) (A) (A) (A) (A) (A) (A) (A) (A) (A)
                 (A) (A) (A) (A) (A) (A) (A) (A) (A) (A) (A) (A)
                 (A) (A) (A) (A) (A) (A) (A) (A) (A) (A) (A) (A)
                 (A) (A) (A) (A) (A) (A) (A) (A) (A) (A) (A) (A)
                 (A) (A) (A) (A) (A) (A) (A) (A) (A) (A) (A) (A)
                 (A) (A) (A) (A) (A) (A) (A) (A) (A) (A) (A) (A)
                 (A) (A) (A) (A) (A) (A) (A) (A) (A) (A) (A) (A)
                 (A) (A) (A) (A) (A) (A) (A) (A) (A) (A) (A) (A)
                 (A) (A) (A) (A) (A) (A) (A) (A) (A) (A) (A) (A)
                 (A) (A) (A) (A) (A) (A) (A) (A) (A) (A) (A) (A)
                 (A) (A) (A) (A) (A) (A) (A) (A) (A) (A) (A) (A)
                 (A) (A) (A) (A) (A) (A) (A) (A) (A) (A) (A) (A)
                 (A) (A) (A) (A) (A) (A) (A) (A) (A) (A) (A) (A)
                 (A) (A) (A) (A) (A) (A) (A) (A) (A) (A) (A) (A)
                 (A) (A) (A) (A) (A) (A) (A) (A) (A) (A) (A) (A)
                 (A) (A) (A) (A) (A) (A) (A) (A) (A) (A) (A) (A)
                 (A) (A) (A) (A) (A) (A) (A) (A) (A) (A) (A) (A)
                 (A) (A) (A) (A) (A) (A) (A) (A) (A) (A) (A) (A)
                 (A) (A) (A) (A) (A) (A) (A) (A) (A) (A) (A) (A)
                 (A) (A) (A) (A) (A) (A) (A) (A) (A) (A) (A) (A)
                 (A) (A) (A) (A) (A) (A) (A) (A) (A) (A) (A) (A)
                 (A) (A) (A) (A) (A) (A) (A) (A) (A) (A) (A) (A)
                 (A) (A) (A) (A) (A) (A) (A) (A) (A) (A) (A) (A)
                 (A) (A) (A) (A) (A) (A) (A) (A) (A) (A) (A) (A)
                 (A) (A) (A) (A) (A) (A) (A) (A) (A) (A) (A) (A)
                 (A) (A) (A) (A) (A) (A) (A) (A) (A) (A) (A) (A)
                 (A) (A) (A) (A) (A) (A) (A) (A) (A) (A) (A) (A)
                 (A) (A) (A) (A) (A) (A) (A) (A) (A) (A) (A) (A)
                 (A) (A) (A) (A) (A) (A) (A) (A) (A) (A) (A) (A)
                 (A) (A) (A) (A) (A) (A) (A) (A) (A) (A) (A) (A)
                 (A) (A) (A) (A) (A) (A) (A) (A) (A) (A) (A) (A)
                 (A) (A) (A) (A) (A) (A) (A) (A) (A) (A) (A) (A)
                 (A) (A) (A) (A) (A) (A) (A) (A) (A) (A) (A) (A)
                 (A) (A) (A) (A) (A) (A) (A) (A) (A) (A) (A)
 Beta  Orbitals:
       Occupied  (A) (A) (A) (A) (A) (A) (A) (A) (A) (A) (A) (A)
                 (A) (A) (A) (A) (A) (A) (A) (A) (A) (A) (A) (A)
                 (A) (A) (A) (A) (A) (A) (A) (A) (A) (A) (A) (A)
                 (A) (A) (A) (A) (A) (A) (A) (A) (A) (A) (A) (A)
                 (A) (A) (A) (A) (A) (A) (A) (A) (A) (A) (A) (A)
                 (A) (A) (A) (A) (A) (A) (A) (A) (A) (A) (A) (A)
                 (A) (A) (A) (A) (A) (A) (A) (A) (A) (A) (A) (A)
                 (A) (A) (A) (A) (A) (A) (A) (A) (A) (A) (A) (A)
                 (A) (A) (A) (A) (A) (A) (A) (A) (A) (A) (A) (A)
                 (A) (A) (A) (A)
       Virtual   (A) (A) (A) (A) (A) (A) (A) (A) (A) (A) (A) (A)
                 (A) (A) (A) (A) (A) (A) (A) (A) (A) (A) (A) (A)
                 (A) (A) (A) (A) (A) (A) (A) (A) (A) (A) (A) (A)
                 (A) (A) (A) (A) (A) (A) (A) (A) (A) (A) (A) (A)
                 (A) (A) (A) (A) (A) (A) (A) (A) (A) (A) (A) (A)
                 (A) (A) (A) (A) (A) (A) (A) (A) (A) (A) (A) (A)
                 (A) (A) (A) (A) (A) (A) (A) (A) (A) (A) (A) (A)
                 (A) (A) (A) (A) (A) (A) (A) (A) (A) (A) (A) (A)
                 (A) (A) (A) (A) (A) (A) (A) (A) (A) (A) (A) (A)
                 (A) (A) (A) (A) (A) (A) (A) (A) (A) (A) (A) (A)
                 (A) (A) (A) (A) (A) (A) (A) (A) (A) (A) (A) (A)
                 (A) (A) (A) (A) (A) (A) (A) (A) (A) (A) (A) (A)
                 (A) (A) (A) (A) (A) (A) (A) (A) (A) (A) (A) (A)
                 (A) (A) (A) (A) (A) (A) (A) (A) (A) (A) (A) (A)
                 (A) (A) (A) (A) (A) (A) (A) (A) (A) (A) (A) (A)
                 (A) (A) (A) (A) (A) (A) (A) (A) (A) (A) (A) (A)
                 (A) (A) (A) (A) (A) (A) (A) (A) (A) (A) (A) (A)
                 (A) (A) (A) (A) (A) (A) (A) (A) (A) (A) (A) (A)
                 (A) (A) (A) (A) (A) (A) (A) (A) (A) (A) (A) (A)
                 (A) (A) (A) (A) (A) (A) (A) (A) (A) (A) (A) (A)
                 (A) (A) (A) (A) (A) (A) (A) (A) (A) (A) (A) (A)
                 (A) (A) (A) (A) (A) (A) (A) (A) (A) (A) (A) (A)
                 (A) (A) (A) (A) (A) (A) (A) (A) (A) (A) (A) (A)
                 (A) (A) (A) (A) (A) (A) (A) (A) (A) (A) (A) (A)
                 (A) (A) (A) (A) (A) (A) (A) (A) (A) (A) (A) (A)
                 (A) (A) (A) (A) (A) (A) (A) (A) (A) (A) (A) (A)
                 (A) (A) (A) (A) (A) (A) (A) (A) (A) (A) (A) (A)
                 (A) (A) (A) (A) (A) (A) (A) (A) (A) (A) (A) (A)
                 (A) (A) (A) (A) (A) (A) (A) (A) (A) (A) (A) (A)
                 (A) (A) (A) (A) (A) (A) (A) (A) (A) (A) (A) (A)
                 (A) (A) (A) (A) (A) (A) (A) (A) (A) (A) (A) (A)
                 (A) (A) (A) (A) (A) (A) (A) (A) (A) (A) (A) (A)
                 (A) (A) (A) (A) (A) (A) (A) (A) (A) (A) (A) (A)
                 (A) (A) (A) (A) (A) (A) (A) (A) (A) (A) (A) (A)
                 (A) (A) (A) (A) (A) (A) (A) (A) (A) (A) (A) (A)
                 (A) (A) (A) (A) (A) (A) (A) (A) (A) (A) (A) (A)
                 (A) (A) (A) (A) (A) (A) (A) (A) (A) (A) (A) (A)
                 (A) (A) (A) (A) (A) (A) (A) (A) (A) (A) (A) (A)
                 (A) (A) (A) (A) (A) (A) (A) (A) (A) (A) (A) (A)
                 (A) (A) (A) (A) (A) (A) (A) (A) (A) (A) (A) (A)
                 (A) (A) (A) (A) (A) (A) (A) (A) (A) (A) (A) (A)
                 (A) (A) (A) (A) (A) (A) (A) (A) (A) (A) (A) (A)
                 (A) (A) (A) (A) (A) (A) (A) (A) (A) (A) (A) (A)
                 (A) (A) (A) (A) (A) (A) (A) (A) (A) (A) (A) (A)
                 (A) (A) (A) (A) (A) (A) (A) (A) (A) (A) (A) (A)
                 (A) (A) (A) (A) (A) (A) (A) (A) (A) (A) (A) (A)
                 (A) (A) (A) (A) (A) (A) (A) (A) (A) (A) (A) (A)
                 (A) (A) (A) (A) (A) (A) (A) (A) (A) (A) (A) (A)
                 (A) (A) (A) (A) (A) (A) (A) (A) (A) (A) (A) (A)
                 (A) (A) (A) (A) (A) (A) (A) (A) (A) (A) (A) (A)
                 (A) (A) (A) (A) (A) (A) (A) (A) (A) (A) (A) (A)
                 (A) (A) (A) (A) (A) (A) (A) (A) (A) (A) (A) (A)
                 (A) (A) (A) (A) (A) (A) (A) (A) (A) (A) (A) (A)
                 (A) (A) (A) (A) (A) (A) (A) (A) (A) (A) (A) (A)
                 (A) (A) (A) (A) (A) (A) (A) (A) (A) (A) (A) (A)
                 (A) (A) (A) (A) (A) (A) (A) (A) (A) (A) (A) (A)
                 (A) (A) (A) (A) (A) (A) (A) (A) (A) (A) (A) (A)
                 (A) (A) (A) (A) (A) (A) (A) (A) (A) (A) (A) (A)
                 (A) (A) (A) (A) (A) (A) (A) (A) (A) (A) (A) (A)
                 (A) (A) (A) (A) (A) (A) (A) (A) (A) (A) (A) (A)
                 (A) (A) (A) (A) (A) (A) (A) (A) (A) (A) (A) (A)
                 (A) (A) (A) (A) (A) (A) (A) (A) (A) (A) (A) (A)
                 (A) (A) (A) (A) (A) (A) (A) (A) (A) (A) (A) (A)
                 (A) (A) (A) (A) (A) (A) (A) (A) (A) (A) (A) (A)
                 (A) (A) (A) (A) (A) (A) (A) (A) (A) (A) (A) (A)
                 (A) (A) (A) (A) (A) (A) (A) (A) (A) (A) (A) (A)
                 (A) (A) (A) (A) (A) (A) (A) (A) (A) (A) (A) (A)
                 (A) (A) (A) (A) (A) (A) (A) (A) (A) (A) (A) (A)
                 (A) (A) (A) (A) (A) (A) (A) (A) (A) (A) (A) (A)
                 (A) (A) (A) (A) (A) (A) (A) (A) (A) (A) (A) (A)
                 (A) (A) (A) (A) (A) (A) (A) (A) (A) (A) (A) (A)
                 (A) (A) (A) (A) (A) (A) (A) (A) (A) (A) (A) (A)
                 (A) (A) (A) (A) (A) (A) (A) (A) (A) (A) (A) (A)
                 (A) (A) (A) (A) (A) (A) (A) (A) (A) (A) (A) (A)
                 (A) (A) (A) (A) (A) (A) (A) (A) (A) (A) (A) (A)
                 (A) (A) (A) (A) (A) (A) (A) (A) (A) (A) (A) (A)
                 (A) (A) (A) (A) (A) (A) (A) (A) (A) (A) (A) (A)
                 (A) (A) (A) (A) (A) (A) (A) (A) (A) (A) (A) (A)
                 (A) (A) (A) (A) (A) (A) (A) (A) (A) (A) (A) (A)
                 (A) (A) (A) (A) (A) (A) (A) (A) (A) (A) (A) (A)
                 (A) (A) (A) (A) (A) (A) (A) (A) (A) (A) (A) (A)
                 (A) (A) (A) (A) (A) (A) (A) (A) (A) (A) (A) (A)
                 (A) (A) (A) (A) (A) (A) (A) (A) (A) (A) (A) (A)
                 (A) (A) (A) (A) (A) (A) (A) (A) (A) (A) (A) (A)
                 (A) (A) (A) (A) (A) (A) (A) (A) (A) (A) (A) (A)
                 (A) (A) (A) (A) (A) (A) (A) (A) (A) (A) (A) (A)
                 (A) (A) (A) (A) (A) (A) (A) (A) (A) (A) (A) (A)
                 (A) (A) (A) (A) (A) (A) (A) (A) (A) (A) (A) (A)
                 (A) (A) (A) (A) (A) (A) (A) (A) (A) (A) (A) (A)
                 (A) (A) (A) (A) (A) (A) (A) (A) (A) (A) (A) (A)
                 (A) (A) (A) (A) (A) (A) (A) (A) (A) (A) (A) (A)
                 (A) (A) (A) (A) (A) (A) (A) (A) (A) (A) (A) (A)
                 (A) (A) (A) (A) (A) (A) (A) (A) (A) (A) (A) (A)
                 (A) (A) (A) (A) (A) (A) (A) (A) (A) (A) (A) (A)
                 (A) (A) (A) (A) (A) (A) (A) (A) (A) (A) (A) (A)
                 (A) (A) (A) (A) (A) (A) (A) (A) (A) (A) (A) (A)
                 (A) (A) (A) (A) (A) (A) (A) (A) (A) (A) (A) (A)
                 (A) (A) (A) (A) (A) (A) (A) (A) (A) (A) (A) (A)
                 (A) (A) (A) (A) (A) (A) (A) (A) (A) (A) (A) (A)
                 (A) (A) (A) (A) (A) (A) (A) (A) (A) (A) (A) (A)
                 (A) (A) (A) (A) (A) (A) (A) (A) (A) (A) (A) (A)
 The electronic state is 2-A.
 Alpha  occ. eigenvalues --  -77.26297 -19.25564 -19.16136 -19.12940 -14.43388
 Alpha  occ. eigenvalues --  -14.43106 -10.31722 -10.29065 -10.28565 -10.26209
 Alpha  occ. eigenvalues --  -10.25424 -10.25403 -10.25199 -10.24873 -10.24230
 Alpha  occ. eigenvalues --  -10.24159 -10.24122 -10.23775 -10.21034 -10.21010
 Alpha  occ. eigenvalues --  -10.20987 -10.20925 -10.20806 -10.20695 -10.20358
 Alpha  occ. eigenvalues --  -10.20015  -6.63737  -4.77390  -4.77305  -4.77133
 Alpha  occ. eigenvalues --   -3.07297  -1.90511  -1.90444  -1.89980  -1.13065
 Alpha  occ. eigenvalues --   -1.00978  -0.97080  -0.92581  -0.89019  -0.85407
 Alpha  occ. eigenvalues --   -0.83881  -0.83524  -0.82887  -0.77930  -0.77210
 Alpha  occ. eigenvalues --   -0.74346  -0.70738  -0.70599  -0.70298  -0.69738
 Alpha  occ. eigenvalues --   -0.69314  -0.66322  -0.66168  -0.63449  -0.62290
 Alpha  occ. eigenvalues --   -0.57883  -0.57473  -0.56344  -0.53664  -0.53268
 Alpha  occ. eigenvalues --   -0.52305  -0.51394  -0.50725  -0.48591  -0.47930
 Alpha  occ. eigenvalues --   -0.47457  -0.46560  -0.46144  -0.46013  -0.45699
 Alpha  occ. eigenvalues --   -0.45308  -0.44835  -0.44366  -0.44218  -0.43752
 Alpha  occ. eigenvalues --   -0.43493  -0.42975  -0.42223  -0.41761  -0.41616
 Alpha  occ. eigenvalues --   -0.40683  -0.40106  -0.39441  -0.39130  -0.39033
 Alpha  occ. eigenvalues --   -0.38767  -0.38448  -0.38226  -0.37386  -0.37021
 Alpha  occ. eigenvalues --   -0.36894  -0.36554  -0.36211  -0.35500  -0.35168
 Alpha  occ. eigenvalues --   -0.34752  -0.34194  -0.33929  -0.33598  -0.33220
 Alpha  occ. eigenvalues --   -0.32864  -0.32546  -0.32299  -0.31721  -0.30334
 Alpha  occ. eigenvalues --   -0.30013  -0.28936  -0.27824  -0.27534  -0.26991
 Alpha  occ. eigenvalues --   -0.22567  -0.21354  -0.20706
 Alpha virt. eigenvalues --   -0.04255  -0.02260  -0.00998   0.00834   0.01632
 Alpha virt. eigenvalues --    0.01884   0.02255   0.03094   0.03230   0.04921
 Alpha virt. eigenvalues --    0.05795   0.07366   0.07573   0.07732   0.07827
 Alpha virt. eigenvalues --    0.08534   0.08749   0.09596   0.09891   0.09949
 Alpha virt. eigenvalues --    0.10280   0.10927   0.11155   0.11570   0.11765
 Alpha virt. eigenvalues --    0.12033   0.12268   0.12695   0.12820   0.13031
 Alpha virt. eigenvalues --    0.13301   0.14080   0.14329   0.14698   0.14934
 Alpha virt. eigenvalues --    0.15399   0.15701   0.15914   0.16064   0.16198
 Alpha virt. eigenvalues --    0.16642   0.16882   0.17394   0.17843   0.17887
 Alpha virt. eigenvalues --    0.18359   0.18649   0.18773   0.19170   0.19221
 Alpha virt. eigenvalues --    0.19774   0.19875   0.20232   0.20510   0.20770
 Alpha virt. eigenvalues --    0.21158   0.21322   0.21767   0.22128   0.22627
 Alpha virt. eigenvalues --    0.22830   0.23396   0.24001   0.24804   0.25377
 Alpha virt. eigenvalues --    0.25668   0.26030   0.26271   0.27178   0.27271
 Alpha virt. eigenvalues --    0.28181   0.28709   0.28903   0.29107   0.29258
 Alpha virt. eigenvalues --    0.30015   0.30527   0.30816   0.30966   0.31489
 Alpha virt. eigenvalues --    0.31775   0.32010   0.32377   0.33409   0.33616
 Alpha virt. eigenvalues --    0.34141   0.34278   0.34378   0.35177   0.35602
 Alpha virt. eigenvalues --    0.36238   0.36825   0.37455   0.37671   0.37877
 Alpha virt. eigenvalues --    0.38037   0.38438   0.38636   0.39139   0.39552
 Alpha virt. eigenvalues --    0.39713   0.40467   0.40666   0.41386   0.41771
 Alpha virt. eigenvalues --    0.42214   0.42618   0.42741   0.43559   0.43743
 Alpha virt. eigenvalues --    0.43927   0.44086   0.44398   0.44760   0.45181
 Alpha virt. eigenvalues --    0.45382   0.45585   0.45756   0.46126   0.46479
 Alpha virt. eigenvalues --    0.46661   0.46836   0.47156   0.47252   0.47594
 Alpha virt. eigenvalues --    0.47934   0.48347   0.48597   0.48858   0.49067
 Alpha virt. eigenvalues --    0.49282   0.49976   0.50087   0.50270   0.50636
 Alpha virt. eigenvalues --    0.50738   0.50950   0.51241   0.51763   0.51958
 Alpha virt. eigenvalues --    0.52249   0.52511   0.52851   0.53117   0.53508
 Alpha virt. eigenvalues --    0.53560   0.53907   0.54289   0.54593   0.54644
 Alpha virt. eigenvalues --    0.55116   0.55278   0.55447   0.55774   0.56359
 Alpha virt. eigenvalues --    0.56583   0.57150   0.57301   0.57914   0.57992
 Alpha virt. eigenvalues --    0.58432   0.58633   0.58799   0.59134   0.59372
 Alpha virt. eigenvalues --    0.60010   0.60244   0.60758   0.61439   0.61571
 Alpha virt. eigenvalues --    0.62001   0.62583   0.63440   0.63612   0.63788
 Alpha virt. eigenvalues --    0.64522   0.64783   0.64847   0.65814   0.66568
 Alpha virt. eigenvalues --    0.66615   0.66825   0.67531   0.67601   0.68551
 Alpha virt. eigenvalues --    0.68880   0.69574   0.70448   0.70921   0.71742
 Alpha virt. eigenvalues --    0.72272   0.73175   0.73609   0.74103   0.74519
 Alpha virt. eigenvalues --    0.75005   0.75309   0.75681   0.76198   0.76752
 Alpha virt. eigenvalues --    0.77196   0.77768   0.78053   0.78942   0.79505
 Alpha virt. eigenvalues --    0.79604   0.80031   0.80783   0.81127   0.81697
 Alpha virt. eigenvalues --    0.81718   0.82448   0.82736   0.82948   0.83868
 Alpha virt. eigenvalues --    0.84511   0.85125   0.85338   0.86348   0.86500
 Alpha virt. eigenvalues --    0.86938   0.87085   0.87251   0.87723   0.88233
 Alpha virt. eigenvalues --    0.89143   0.89565   0.89857   0.89962   0.90416
 Alpha virt. eigenvalues --    0.91150   0.91456   0.92136   0.92543   0.93083
 Alpha virt. eigenvalues --    0.93807   0.94121   0.94613   0.94963   0.95619
 Alpha virt. eigenvalues --    0.95893   0.95951   0.96173   0.97000   0.97314
 Alpha virt. eigenvalues --    0.97505   0.97707   0.98385   0.98663   0.99196
 Alpha virt. eigenvalues --    0.99237   0.99691   1.00026   1.00120   1.00817
 Alpha virt. eigenvalues --    1.01342   1.01624   1.02238   1.02455   1.03052
 Alpha virt. eigenvalues --    1.03442   1.03592   1.03996   1.04322   1.04825
 Alpha virt. eigenvalues --    1.05103   1.05530   1.06528   1.06706   1.07053
 Alpha virt. eigenvalues --    1.07435   1.08268   1.08533   1.09269   1.09585
 Alpha virt. eigenvalues --    1.09724   1.10169   1.10457   1.10547   1.11098
 Alpha virt. eigenvalues --    1.11564   1.12586   1.12756   1.13221   1.13578
 Alpha virt. eigenvalues --    1.13750   1.14385   1.14548   1.14763   1.15043
 Alpha virt. eigenvalues --    1.15569   1.15808   1.16022   1.16639   1.17280
 Alpha virt. eigenvalues --    1.17701   1.18072   1.18524   1.19047   1.19655
 Alpha virt. eigenvalues --    1.19695   1.19983   1.20422   1.20722   1.20813
 Alpha virt. eigenvalues --    1.21167   1.22289   1.22624   1.23108   1.23572
 Alpha virt. eigenvalues --    1.23874   1.24004   1.24106   1.24846   1.25413
 Alpha virt. eigenvalues --    1.25591   1.25891   1.26252   1.26620   1.27047
 Alpha virt. eigenvalues --    1.27394   1.27652   1.27721   1.28244   1.28484
 Alpha virt. eigenvalues --    1.28890   1.29463   1.29838   1.30155   1.30514
 Alpha virt. eigenvalues --    1.30827   1.31009   1.31659   1.32039   1.32640
 Alpha virt. eigenvalues --    1.33085   1.33314   1.33712   1.34208   1.34507
 Alpha virt. eigenvalues --    1.34817   1.34914   1.35157   1.35548   1.35919
 Alpha virt. eigenvalues --    1.36181   1.36757   1.36796   1.37514   1.37967
 Alpha virt. eigenvalues --    1.38102   1.38487   1.38773   1.39164   1.39293
 Alpha virt. eigenvalues --    1.39815   1.40683   1.40907   1.41033   1.41505
 Alpha virt. eigenvalues --    1.41972   1.42077   1.42691   1.42848   1.43138
 Alpha virt. eigenvalues --    1.43886   1.44537   1.44679   1.45193   1.45590
 Alpha virt. eigenvalues --    1.45703   1.46580   1.47388   1.47668   1.48175
 Alpha virt. eigenvalues --    1.48475   1.49243   1.49706   1.49969   1.50197
 Alpha virt. eigenvalues --    1.50693   1.51218   1.51584   1.52154   1.52783
 Alpha virt. eigenvalues --    1.53339   1.53959   1.54759   1.55174   1.55414
 Alpha virt. eigenvalues --    1.55644   1.56181   1.56749   1.57503   1.57645
 Alpha virt. eigenvalues --    1.58619   1.58840   1.59284   1.59914   1.60153
 Alpha virt. eigenvalues --    1.60413   1.60731   1.61145   1.61615   1.61919
 Alpha virt. eigenvalues --    1.62580   1.62947   1.63585   1.63826   1.64295
 Alpha virt. eigenvalues --    1.64818   1.65169   1.65410   1.66261   1.66890
 Alpha virt. eigenvalues --    1.67916   1.68919   1.69607   1.69900   1.70158
 Alpha virt. eigenvalues --    1.70692   1.71862   1.72038   1.72620   1.73296
 Alpha virt. eigenvalues --    1.73887   1.74897   1.75474   1.76408   1.77037
 Alpha virt. eigenvalues --    1.77449   1.78062   1.79042   1.79609   1.79946
 Alpha virt. eigenvalues --    1.80433   1.81814   1.82888   1.83679   1.84819
 Alpha virt. eigenvalues --    1.85583   1.85848   1.86874   1.87737   1.88812
 Alpha virt. eigenvalues --    1.90367   1.90682   1.91513   1.92702   1.93886
 Alpha virt. eigenvalues --    1.94321   1.95786   1.96659   1.97412   1.98193
 Alpha virt. eigenvalues --    1.99485   1.99651   2.00502   2.02026   2.02479
 Alpha virt. eigenvalues --    2.03135   2.05084   2.06838   2.07468   2.08228
 Alpha virt. eigenvalues --    2.09732   2.11093   2.12105   2.14339   2.15067
 Alpha virt. eigenvalues --    2.16675   2.18799   2.19786   2.21120   2.22298
 Alpha virt. eigenvalues --    2.24128   2.25226   2.26463   2.27205   2.30298
 Alpha virt. eigenvalues --    2.30551   2.32326   2.32433   2.34061   2.34311
[...]
    63   Atom       -0.001275      0.002585     -0.007038
 --------------------------------------------------------


 ---------------------------------------------------------------------------------
              Anisotropic Spin Dipole Couplings in Principal Axis System
 ---------------------------------------------------------------------------------

       Atom             a.u.   MegaHertz   Gauss  10(-4) cm-1        Axes

              Baa    -0.0052    -0.200    -0.071    -0.067  0.4417 -0.4714  0.7633
     1 N(14)  Bbb     0.0017     0.067     0.024     0.022  0.5770  0.8008  0.1607
              Bcc     0.0035     0.133     0.048     0.044  0.6870 -0.3694 -0.6257
 
              Baa    -0.0060    -0.807    -0.288    -0.269  0.6467  0.2092  0.7335
     2 C(13)  Bbb    -0.0021    -0.285    -0.102    -0.095  0.4965  0.6146 -0.6131
              Bcc     0.0081     1.092     0.390     0.364 -0.5790  0.7606  0.2936
 
              Baa    -0.0050    -0.670    -0.239    -0.223  0.7866  0.1054  0.6084
     3 C(13)  Bbb    -0.0020    -0.274    -0.098    -0.091 -0.5926  0.4058  0.6958
              Bcc     0.0070     0.944     0.337     0.315  0.1736  0.9079 -0.3817
 
              Baa    -0.0012    -0.165    -0.059    -0.055  0.7232  0.3371 -0.6027
     4 C(13)  Bbb    -0.0010    -0.133    -0.047    -0.044  0.5555  0.2345  0.7977
              Bcc     0.0022     0.298     0.106     0.099 -0.4103  0.9118  0.0177
 
              Baa    -0.0019    -0.261    -0.093    -0.087  0.1115  0.1200  0.9865
     5 C(13)  Bbb    -0.0001    -0.013    -0.005    -0.004  0.9804  0.1492 -0.1289
              Bcc     0.0020     0.274     0.098     0.092 -0.1626  0.9815 -0.1010
 
              Baa    -0.0010    -0.133    -0.047    -0.044  0.9412 -0.1660 -0.2942
     6 C(13)  Bbb    -0.0008    -0.111    -0.040    -0.037  0.3199  0.1582  0.9341
              Bcc     0.0018     0.244     0.087     0.081  0.1086  0.9733 -0.2020
 
              Baa    -0.0039    -0.525    -0.188    -0.175  0.0911 -0.3321  0.9388
     7 C(13)  Bbb    -0.0035    -0.465    -0.166    -0.155  0.6221  0.7552  0.2068
              Bcc     0.0074     0.991     0.354     0.330  0.7776 -0.5652 -0.2754
 
              Baa    -0.0007    -0.399    -0.142    -0.133 -0.1887 -0.2016  0.9611
     8 H(1)   Bbb    -0.0007    -0.374    -0.133    -0.125  0.8415  0.4713  0.2640
              Bcc     0.0014     0.772     0.276     0.258 -0.5062  0.8586  0.0807
 
              Baa    -0.0005    -0.260    -0.093    -0.087  0.2461  0.1192  0.9619
     9 H(1)   Bbb    -0.0004    -0.204    -0.073    -0.068  0.9527  0.1527 -0.2626
              Bcc     0.0009     0.464     0.166     0.155 -0.1782  0.9811 -0.0760
 
              Baa    -0.0007    -0.365    -0.130    -0.122 -0.5068  0.2599  0.8219
    10 H(1)   Bbb    -0.0007    -0.352    -0.126    -0.118  0.8454 -0.0365  0.5328
              Bcc     0.0013     0.717     0.256     0.239  0.1685  0.9649 -0.2012
 
              Baa    -0.0031    -0.420    -0.150    -0.140 -0.1219  0.4356  0.8919
    11 C(13)  Bbb    -0.0026    -0.352    -0.126    -0.117  0.8804 -0.3675  0.2998
              Bcc     0.0058     0.772     0.276     0.258  0.4584  0.8217 -0.3386
 
              Baa    -0.0383    -1.478    -0.528    -0.493  0.0824 -0.2262  0.9706
    12 N(14)  Bbb    -0.0332    -1.280    -0.457    -0.427  0.0925  0.9714  0.2185
              Bcc     0.0715     2.758     0.984     0.920  0.9923 -0.0718 -0.1010
 
              Baa    -0.0018    -0.951    -0.339    -0.317  0.2532 -0.0664  0.9651
    13 H(1)   Bbb    -0.0014    -0.766    -0.273    -0.256  0.5992  0.7940 -0.1026
              Bcc     0.0032     1.717     0.613     0.573  0.7595 -0.6043 -0.2408
 
              Baa    -0.0032    -1.686    -0.602    -0.562  0.4279 -0.4868  0.7615
    14 H(1)   Bbb    -0.0024    -1.295    -0.462    -0.432  0.6949  0.7159  0.0672
              Bcc     0.0056     2.981     1.064     0.994 -0.5779  0.5005  0.6446
 
              Baa    -0.0027    -1.417    -0.506    -0.473  0.7347  0.1310  0.6656
    15 H(1)   Bbb    -0.0021    -1.127    -0.402    -0.376 -0.5446  0.6989  0.4636
              Bcc     0.0048     2.544     0.908     0.849  0.4045  0.7031 -0.5848
 
              Baa    -0.0297    -6.427    -2.293    -2.144  0.6817 -0.5909 -0.4314
    16 P(31)  Bbb    -0.0114    -2.461    -0.878    -0.821  0.3734 -0.2261  0.8997
              Bcc     0.0411     8.888     3.171     2.965  0.6292  0.7744 -0.0665
 
              Baa    -0.0014    -0.773    -0.276    -0.258  0.4557 -0.0845  0.8861
    17 H(1)   Bbb    -0.0012    -0.653    -0.233    -0.218  0.6888 -0.5971 -0.4111
              Bcc     0.0027     1.427     0.509     0.476  0.5639  0.7977 -0.2139
 
              Baa    -0.1557     3.815     1.361     1.273  0.1250 -0.1116  0.9859
    18 Ru(99) Bbb     0.0585    -1.433    -0.511    -0.478  0.8565  0.5137 -0.0505
              Bcc     0.0972    -2.383    -0.850    -0.795 -0.5008  0.8507  0.1598
 
              Baa    -0.0035    -0.475    -0.170    -0.159 -0.5186 -0.5928  0.6161
    19 C(13)  Bbb    -0.0031    -0.419    -0.150    -0.140 -0.1147  0.7624  0.6369
              Bcc     0.0067     0.894     0.319     0.298  0.8473 -0.2596  0.4634
 
              Baa    -0.0076    -1.019    -0.364    -0.340  0.4055 -0.4385  0.8020
    20 C(13)  Bbb    -0.0050    -0.669    -0.239    -0.223  0.3719  0.8807  0.2935
              Bcc     0.0126     1.687     0.602     0.563  0.8350 -0.1792 -0.5202
 
              Baa    -0.0054    -0.725    -0.259    -0.242  0.4683  0.0574  0.8817
    21 C(13)  Bbb    -0.0033    -0.438    -0.156    -0.146 -0.1152  0.9933 -0.0035
              Bcc     0.0087     1.163     0.415     0.388  0.8760  0.0999 -0.4718
 
              Baa    -0.0021    -0.286    -0.102    -0.095 -0.1764 -0.3274  0.9283
    22 C(13)  Bbb    -0.0014    -0.186    -0.066    -0.062 -0.6291  0.7628  0.1495
              Bcc     0.0035     0.471     0.168     0.157  0.7570  0.5576  0.3406
 
              Baa    -0.0073    -0.978    -0.349    -0.326  0.6901 -0.2117  0.6920
    23 C(13)  Bbb    -0.0051    -0.683    -0.244    -0.228 -0.1421  0.8980  0.4165
              Bcc     0.0124     1.661     0.593     0.554  0.7096  0.3858 -0.5896
 
              Baa    -0.0026    -0.354    -0.126    -0.118  0.0018  0.7792 -0.6268
    24 C(13)  Bbb    -0.0021    -0.283    -0.101    -0.094  0.0763  0.6248  0.7770
              Bcc     0.0048     0.637     0.227     0.213  0.9971 -0.0492 -0.0584
 
              Baa    -0.0026    -0.352    -0.125    -0.117  0.0890  0.5519  0.8291
    25 C(13)  Bbb    -0.0022    -0.300    -0.107    -0.100 -0.6270  0.6778 -0.3839
              Bcc     0.0049     0.652     0.233     0.217  0.7739  0.4857 -0.4064
 
              Baa    -0.0017    -0.232    -0.083    -0.077 -0.5762 -0.2613  0.7744
    26 C(13)  Bbb    -0.0013    -0.176    -0.063    -0.059 -0.6544  0.7152 -0.2456
              Bcc     0.0030     0.408     0.146     0.136  0.4896  0.6483  0.5831
 
              Baa    -0.0009    -0.119    -0.042    -0.040 -0.1585 -0.2820  0.9462
    27 C(13)  Bbb    -0.0008    -0.105    -0.037    -0.035 -0.5898  0.7956  0.1383
              Bcc     0.0017     0.224     0.080     0.075  0.7918  0.5362  0.2924
 
              Baa    -0.0018    -0.247    -0.088    -0.082 -0.6154 -0.2226  0.7561
    28 C(13)  Bbb    -0.0015    -0.205    -0.073    -0.068 -0.3079  0.9510  0.0294
              Bcc     0.0034     0.452     0.161     0.151  0.7256  0.2147  0.6538
 
              Baa    -0.0136    -1.826    -0.652    -0.609 -0.3455  0.9376  0.0391
    29 C(13)  Bbb    -0.0113    -1.515    -0.541    -0.505  0.9384  0.3452  0.0150
              Bcc     0.0249     3.341     1.192     1.115 -0.0006 -0.0418  0.9991
 
              Baa    -0.0162     1.169     0.417     0.390 -0.0730  0.9881  0.1354
    30 O(17)  Bbb    -0.0113     0.819     0.292     0.273  0.9960  0.0652  0.0609
              Bcc     0.0275    -1.988    -0.709    -0.663 -0.0514 -0.1393  0.9889
 
              Baa    -0.0031    -1.635    -0.584    -0.545  0.7284  0.2089 -0.6525
    31 H(1)   Bbb    -0.0028    -1.517    -0.541    -0.506  0.2026  0.8441  0.4964
              Bcc     0.0059     3.152     1.125     1.051  0.6545 -0.4938  0.5726
 
              Baa    -0.0021    -0.277    -0.099    -0.092 -0.1713  0.2843  0.9433
    32 C(13)  Bbb    -0.0019    -0.258    -0.092    -0.086  0.2895  0.9297 -0.2276
              Bcc     0.0040     0.535     0.191     0.178  0.9417 -0.2341  0.2416
 
              Baa    -0.0041    -2.190    -0.781    -0.730 -0.5519 -0.3991  0.7322
    33 H(1)   Bbb    -0.0030    -1.588    -0.566    -0.530 -0.1097  0.9051  0.4107
              Bcc     0.0071     3.777     1.348     1.260  0.8266 -0.1463  0.5434
 
              Baa    -0.0035    -1.894    -0.676    -0.632  0.7150  0.1431  0.6844
    34 H(1)   Bbb    -0.0025    -1.311    -0.468    -0.437 -0.0844  0.9893 -0.1186
              Bcc     0.0060     3.205     1.144     1.069 -0.6940  0.0270  0.7194
 
              Baa    -0.0155    -2.086    -0.744    -0.696  0.2519 -0.0649  0.9656
    35 C(13)  Bbb    -0.0124    -1.662    -0.593    -0.554  0.1064  0.9936  0.0390
              Bcc     0.0279     3.748     1.337     1.250  0.9619 -0.0929 -0.2571
 
              Baa    -0.0019    -1.024    -0.365    -0.341  0.3188  0.3054  0.8973
    36 H(1)   Bbb    -0.0015    -0.812    -0.290    -0.271  0.0105  0.9455 -0.3256
              Bcc     0.0034     1.836     0.655     0.612  0.9478 -0.1132 -0.2982
 
              Baa    -1.3091    94.726    33.801    31.597  0.1891 -0.4289  0.8833
    37 O(17)  Bbb    -1.2751    92.264    32.922    30.776 -0.0509  0.8941  0.4450
              Bcc     2.5842  -186.990   -66.723   -62.373  0.9806  0.1291 -0.1473
 
              Baa    -0.0095     0.688     0.246     0.230  0.6152 -0.0696  0.7853
    38 O(17)  Bbb     0.0041    -0.299    -0.107    -0.100  0.7510 -0.2515 -0.6105
              Bcc     0.0054    -0.389    -0.139    -0.130  0.2400  0.9654 -0.1025
 
              Baa    -0.0182    -9.722    -3.469    -3.243  0.2521  0.0009  0.9677
    39 H(1)   Bbb    -0.0139    -7.441    -2.655    -2.482 -0.2628  0.9625  0.0676
              Bcc     0.0322    17.163     6.124     5.725  0.9313  0.2714 -0.2428
 
              Baa    -0.0033    -1.743    -0.622    -0.581 -0.1732  0.9457 -0.2750
    40 H(1)   Bbb    -0.0023    -1.210    -0.432    -0.404 -0.2422  0.2297  0.9426
              Bcc     0.0055     2.954     1.054     0.985  0.9546  0.2299  0.1893
 
              Baa    -0.0033    -1.752    -0.625    -0.585  0.1769  0.5271  0.8312
    41 H(1)   Bbb    -0.0017    -0.915    -0.326    -0.305 -0.6313  0.7087 -0.3150
              Bcc     0.0050     2.667     0.952     0.890  0.7551  0.4690 -0.4581
 
              Baa    -0.0009    -0.501    -0.179    -0.167  0.3507  0.9319 -0.0925
    42 H(1)   Bbb    -0.0008    -0.439    -0.156    -0.146 -0.4099  0.2416  0.8795
              Bcc     0.0018     0.939     0.335     0.313  0.8420 -0.2706  0.4667
 
              Baa    -0.0010    -0.554    -0.198    -0.185 -0.2895 -0.2208  0.9313
    43 H(1)   Bbb    -0.0009    -0.495    -0.177    -0.165  0.3952  0.8587  0.3264
              Bcc     0.0020     1.049     0.374     0.350  0.8718 -0.4625  0.1614
 
              Baa    -0.0011    -0.607    -0.216    -0.202 -0.0939  0.5463  0.8323
    44 H(1)   Bbb    -0.0010    -0.541    -0.193    -0.181  0.1996  0.8294 -0.5218
              Bcc     0.0022     1.148     0.410     0.383  0.9754 -0.1171  0.1869
 
              Baa    -0.0022    -1.197    -0.427    -0.399  0.6945 -0.0316  0.7188
    45 H(1)   Bbb    -0.0016    -0.837    -0.299    -0.279  0.0871  0.9954 -0.0403
              Bcc     0.0038     2.034     0.726     0.678  0.7142 -0.0906 -0.6941
 
              Baa    -0.0030    -1.579    -0.563    -0.527  0.6471  0.5158  0.5614
    46 H(1)   Bbb    -0.0025    -1.352    -0.482    -0.451 -0.5939  0.8028 -0.0531
              Bcc     0.0055     2.931     1.046     0.978 -0.4781 -0.2991  0.8258
 
              Baa    -0.0115    -6.112    -2.181    -2.039  0.7450 -0.1226  0.6557
    47 H(1)   Bbb    -0.0089    -4.722    -1.685    -1.575  0.0531  0.9907  0.1249
              Bcc     0.0203    10.834     3.866     3.614 -0.6649 -0.0583  0.7446
 
              Baa    -0.0015    -0.793    -0.283    -0.265  0.1863 -0.0437  0.9815
    48 H(1)   Bbb    -0.0013    -0.679    -0.242    -0.227  0.1613  0.9868  0.0133
              Bcc     0.0028     1.473     0.525     0.491  0.9692 -0.1558 -0.1909
 
              Baa    -0.0040    -2.112    -0.753    -0.704 -0.1271  0.0164  0.9918
    49 H(1)   Bbb    -0.0032    -1.684    -0.601    -0.562  0.1462  0.9892  0.0023
              Bcc     0.0071     3.796     1.354     1.266  0.9811 -0.1453  0.1281
 
              Baa    -0.0014    -0.737    -0.263    -0.246 -0.1092  0.1125  0.9876
    50 H(1)   Bbb    -0.0012    -0.650    -0.232    -0.217 -0.0225  0.9930 -0.1156
              Bcc     0.0026     1.386     0.495     0.462  0.9938  0.0348  0.1059
 
              Baa    -0.0010    -0.528    -0.188    -0.176  0.5126 -0.3507  0.7838
    51 H(1)   Bbb    -0.0008    -0.420    -0.150    -0.140  0.0062  0.9143  0.4050
              Bcc     0.0018     0.948     0.338     0.316  0.8586  0.2028 -0.4708
 
              Baa    -0.0010    -0.548    -0.196    -0.183 -0.4492  0.6671 -0.5943
    52 H(1)   Bbb    -0.0008    -0.439    -0.157    -0.146 -0.1511  0.5989  0.7865
              Bcc     0.0019     0.987     0.352     0.329  0.8805  0.4431 -0.1682
 
              Baa    -0.0012    -0.643    -0.229    -0.214  0.2799  0.4983  0.8206
    53 H(1)   Bbb    -0.0009    -0.496    -0.177    -0.166  0.6967 -0.6935  0.1834
              Bcc     0.0021     1.139     0.406     0.380  0.6604  0.5204 -0.5413
 
              Baa    -0.0008    -0.440    -0.157    -0.147 -0.0522 -0.3605  0.9313
    54 H(1)   Bbb    -0.0008    -0.416    -0.148    -0.139 -0.4237  0.8524  0.3062
              Bcc     0.0016     0.856     0.306     0.286  0.9043  0.3786  0.1973
 
              Baa    -0.0006    -0.327    -0.117    -0.109 -0.3300 -0.1878  0.9251
    55 H(1)   Bbb    -0.0006    -0.294    -0.105    -0.098 -0.5463  0.8372 -0.0249
              Bcc     0.0012     0.621     0.221     0.207  0.7698  0.5136  0.3789
 
              Baa    -0.0008    -0.441    -0.157    -0.147  0.1445 -0.3434  0.9280
    56 H(1)   Bbb    -0.0007    -0.381    -0.136    -0.127 -0.6312  0.6903  0.3537
              Bcc     0.0015     0.822     0.293     0.274  0.7620  0.6369  0.1170
 
              Baa    -0.0015    -0.812    -0.290    -0.271 -0.5220 -0.0779  0.8494
    57 H(1)   Bbb    -0.0013    -0.712    -0.254    -0.238 -0.1200  0.9926  0.0173
              Bcc     0.0029     1.524     0.544     0.508  0.8445  0.0929  0.5275
 
              Baa    -0.0028    -1.490    -0.532    -0.497  0.8146  0.0179 -0.5798
    58 H(1)   Bbb    -0.0021    -1.100    -0.393    -0.367 -0.0992  0.9891 -0.1088
              Bcc     0.0049     2.590     0.924     0.864  0.5715  0.1462  0.8075
 
              Baa    -0.0010    -0.519    -0.185    -0.173 -0.6531 -0.2569  0.7124
    59 H(1)   Bbb    -0.0009    -0.454    -0.162    -0.152 -0.3713  0.9285 -0.0055
              Bcc     0.0018     0.973     0.347     0.325  0.6600  0.2681  0.7018
 
              Baa    -0.0009    -0.480    -0.171    -0.160 -0.4911 -0.3988  0.7745
    60 H(1)   Bbb    -0.0008    -0.422    -0.151    -0.141  0.7205 -0.6856  0.1039
              Bcc     0.0017     0.902     0.322     0.301  0.4895  0.6091  0.6240
 
              Baa    -0.0026    -1.377    -0.491    -0.459 -0.5919 -0.4624  0.6602
    61 H(1)   Bbb    -0.0021    -1.139    -0.407    -0.380  0.7448 -0.6270  0.2286
              Bcc     0.0047     2.516     0.898     0.839  0.3082  0.6270  0.7155
 
              Baa    -0.0013    -0.711    -0.254    -0.237  0.0190 -0.4207  0.9070
    62 H(1)   Bbb    -0.0012    -0.633    -0.226    -0.211  0.8867 -0.4120 -0.2097
              Bcc     0.0025     1.343     0.479     0.448  0.4619  0.8082  0.3652
 
              Baa    -0.0082    -4.389    -1.566    -1.464  0.8952  0.4439  0.0386
    63 H(1)   Bbb    -0.0073    -3.907    -1.394    -1.303 -0.4285  0.8340  0.3477
              Bcc     0.0155     8.296     2.960     2.767  0.1221 -0.3278  0.9368
 

 ---------------------------------------------------------------------------------

 1\1\GINC-NODE077\SP\UPBE1PBE\GenECP\C20H36N2O3P1Ru1(2)\JS1212\28-Aug-2
 020\0\\# genecp pbe1pbe EmpiricalDispersion=GD3BJ scrf=(SMD,solvent=wa
 ter) geom=allcheck\\Title Card Required\\0,2\N,0,-0.6812204424,1.57144
 46512,-0.1151843257\C,0,-1.8980458741,2.0724426765,0.1573060882\C,0,0.
 2542020054,2.3156695708,-0.7337312176\C,0,-2.2130043076,3.3950242073,-
 0.1230549877\C,0,-1.2332474931,4.2056438045,-0.6946187336\C,0,0.006668
 733,3.6598667482,-1.0102382167\C,0,-2.8301078423,1.0856477455,0.793333
 5514\H,0,-3.2079054167,3.7803773527,0.1024096842\H,0,-1.4448443394,5.2
 532600543,-0.9153995777\H,0,0.7774860232,4.2618902191,-1.4927635109\C,
 0,1.501758813,1.6052955983,-1.1639386093\N,0,-2.706045288,-0.252155784
 9,0.1762033279\H,0,-3.8689280034,1.4551168434,0.7666989449\H,0,-2.5472
 935954,0.9787115358,1.8533510924\H,0,1.2840480949,1.201616587,-2.16835
 2552\P,0,1.7944441936,0.0527364269,-0.1721290193\H,0,2.3653966509,2.28
 30717777,-1.217169729\Ru,0,-0.4285118534,-0.4908118857,0.1038667192\C,
 0,-3.2642439486,-0.2585208747,-1.1973453487\C,0,2.9266974422,-1.008925
 1258,-1.2696771276\C,0,-3.3749291047,-1.2384439918,1.0572228358\C,0,2.
 743157469,0.668240808,1.3608104215\C,0,2.0535538829,-1.7477273537,-2.2
 85678225\C,0,3.6198991299,-2.0622934651,-0.4034869324\C,0,3.9570974054
 ,-0.1703918309,-2.0296464396\C,0,1.9164047739,1.8064153941,1.972646201
 8\C,0,4.1298107826,1.2214452128,1.0280399279\C,0,2.8810056304,-0.44941
 61107,2.3992966542\C,0,-0.414719761,-0.6495732899,1.9331479238\O,0,-0.
 4706708597,-0.7760587178,3.0904752116\H,0,-2.6708602547,0.4567878045,-
 1.7807276084\C,0,-4.7565768016,0.0046219834,-1.3175246252\H,0,-3.00923
 57226,-1.2336456288,-1.6291553481\H,0,-2.8864735262,-1.1609630485,2.03
 89663581\C,0,-3.2865354465,-2.6640354791,0.5584360388\H,0,-4.430018345
 5,-0.9361617197,1.2030369581\O,0,-0.2993296111,-2.3803818146,-0.176964
 5539\O,0,-0.5423012807,-0.3192543099,-1.9559310002\H,0,-2.23698474,-2.
 9325402089,0.3488492945\H,0,-3.8856146403,-2.8283089635,-0.3494915532\
 H,0,-3.6753657369,-3.3373977675,1.3366789071\H,0,-5.0268999541,-0.0212
 02989,-2.3838131823\H,0,-5.0545091359,0.9944057426,-0.9380976484\H,0,-
 5.3696833291,-0.7542842293,-0.8082492959\H,0,2.7127734609,-2.386631824
 7,-2.8975534554\H,0,1.5132613808,-1.0552352497,-2.9438370244\H,0,1.306
 153638,-2.3746252001,-1.7759479578\H,0,4.1174459546,-2.7873471395,-1.0
 680507773\H,0,2.8923301632,-2.6179290416,0.2075630934\H,0,4.3917605552
 ,-1.6374646373,0.2527207765\H,0,4.575745716,-0.8494975934,-2.639820033
 8\H,0,4.6342310544,0.393858402,-1.3767226495\H,0,3.4750432267,0.533370
 1786,-2.723973076\H,0,4.8263021213,0.439019878,0.6986421525\H,0,4.5563
 081934,1.6752551004,1.9382129048\H,0,4.0977296834,2.0069269374,0.25767
 56529\H,0,3.5738199353,-1.2357379064,2.0782412029\H,0,1.9201669215,-0.
 9195259857,2.6382118404\H,0,3.2805527953,-0.0159381037,3.3312964676\H,
 0,2.3929828053,2.1161209505,2.9169208772\H,0,0.8867984703,1.5003296859
 ,2.1990864018\H,0,1.8785126575,2.6903796895,1.3189375624\H,0,-0.554593
 1083,-1.2569862946,-2.1962107313\\Version=ES64L-G16RevA.03\State=2-A\H
 F=-1554.353177\S2=0.760809\S2-1=0.\S2A=0.750068\RMSD=1.372e-09\Dipole=
 0.1194211,4.9624788,0.2628572\Quadrupole=24.1024731,-6.2863757,-17.816
 0974,-3.7790258,-4.4016717,-0.9319081\PG=C01 [X(C20H36N2O3P1Ru1)]\\@


 MANHOOD BEGINS BY TRYING TO SHAVE FACE,
 AND ENDS BY TRYING TO SAVE FACE.
 Job cpu time:       1 days  3 hours 54 minutes 41.3 seconds.
 Elapsed time:       0 days  1 hours 44 minutes 50.3 seconds.
 File lengths (MBytes):  RWF=   1864 Int=      0 D2E=      0 Chk=    146 Scr=      1
 Normal termination of Gaussian 16 at Fri Aug 28 20:17:05 2020.
