 Entering Gaussian System, Link 0=g16
 Initial command:
 /cluster/chemistry/gaussian/g16/l1.exe "/scratch/js1212.574152/scratch/Gau-25658.inp" -scrdir="/scratch/js1212.574152/scratch/"
 Entering Link 1 = /cluster/chemistry/gaussian/g16/l1.exe PID=     25659.
  
 Copyright (c) 1988,1990,1992,1993,1995,1998,2003,2009,2016,
            Gaussian, Inc.  All Rights Reserved.
  
 This is part of the Gaussian(R) 16 program.  It is based on
 the Gaussian(R) 09 system (copyright 2009, Gaussian, Inc.),
 the Gaussian(R) 03 system (copyright 2003, Gaussian, Inc.),
 the Gaussian(R) 98 system (copyright 1998, Gaussian, Inc.),
 the Gaussian(R) 94 system (copyright 1995, Gaussian, Inc.),
 the Gaussian 92(TM) system (copyright 1992, Gaussian, Inc.),
 the Gaussian 90(TM) system (copyright 1990, Gaussian, Inc.),
 the Gaussian 88(TM) system (copyright 1988, Gaussian, Inc.),
 the Gaussian 86(TM) system (copyright 1986, Carnegie Mellon
 University), and the Gaussian 82(TM) system (copyright 1983,
 Carnegie Mellon University). Gaussian is a federally registered
 trademark of Gaussian, Inc.
  
 This software contains proprietary and confidential information,
 including trade secrets, belonging to Gaussian, Inc.
  
 This software is provided under written license and may be
 used, copied, transmitted, or stored only in accord with that
 written license.
  
 The following legend is applicable only to US Government
 contracts under FAR:
  
                    RESTRICTED RIGHTS LEGEND
  
 Use, reproduction and disclosure by the US Government is
 subject to restrictions as set forth in subparagraphs (a)
 and (c) of the Commercial Computer Software - Restricted
 Rights clause in FAR 52.227-19.
  
 Gaussian, Inc.
 340 Quinnipiac St., Bldg. 40, Wallingford CT 06492
  
  
 ---------------------------------------------------------------
 Warning -- This program may not be used in any manner that
 competes with the business of Gaussian, Inc. or will provide
 assistance to any competitor of Gaussian, Inc.  The licensee
 of this program is prohibited from giving any competitor of
 Gaussian, Inc. access to this program.  By using this program,
 the user acknowledges that Gaussian, Inc. is engaged in the
 business of creating and licensing software in the field of
 computational chemistry and represents and warrants to the
 licensee that it is not a competitor of Gaussian, Inc. and that
 it will not use this program in any manner prohibited above.
 ---------------------------------------------------------------
  

 Cite this work as:
 Gaussian 16, Revision A.03,
 M. J. Frisch, G. W. Trucks, H. B. Schlegel, G. E. Scuseria, 
 M. A. Robb, J. R. Cheeseman, G. Scalmani, V. Barone, 
 G. A. Petersson, H. Nakatsuji, X. Li, M. Caricato, A. V. Marenich, 
 J. Bloino, B. G. Janesko, R. Gomperts, B. Mennucci, H. P. Hratchian, 
 J. V. Ortiz, A. F. Izmaylov, J. L. Sonnenberg, D. Williams-Young, 
 F. Ding, F. Lipparini, F. Egidi, J. Goings, B. Peng, A. Petrone, 
 T. Henderson, D. Ranasinghe, V. G. Zakrzewski, J. Gao, N. Rega, 
 G. Zheng, W. Liang, M. Hada, M. Ehara, K. Toyota, R. Fukuda, 
 J. Hasegawa, M. Ishida, T. Nakajima, Y. Honda, O. Kitao, H. Nakai, 
 T. Vreven, K. Throssell, J. A. Montgomery, Jr., J. E. Peralta, 
 F. Ogliaro, M. J. Bearpark, J. J. Heyd, E. N. Brothers, K. N. Kudin, 
 V. N. Staroverov, T. A. Keith, R. Kobayashi, J. Normand, 
 K. Raghavachari, A. P. Rendell, J. C. Burant, S. S. Iyengar, 
 J. Tomasi, M. Cossi, J. M. Millam, M. Klene, C. Adamo, R. Cammi, 
 J. W. Ochterski, R. L. Martin, K. Morokuma, O. Farkas, 
 J. B. Foresman, and D. J. Fox, Gaussian, Inc., Wallingford CT, 2016.
 
 ******************************************
 Gaussian 16:  ES64L-G16RevA.03 25-Dec-2016
                14-Feb-2020 
 ******************************************
 %rwf=/scratch/js1212.574152/3-HTrans-GP-D-0-TD-SMD.rwf
 %nosave
 %nprocshared=20
 Will use up to   20 processors via shared memory.
 %mem=3000MB
 %chk=/scratch/js1212.574152/3-HTrans-GPOF-D-0.chk
 ----------------------------------------------------------------------
 # genecp pbe1pbe EmpiricalDispersion=GD3BJ scrf=(SMD,solvent=water) td
 =nstates=12 geom=allcheck
 ----------------------------------------------------------------------
 1/29=7,38=1,172=1/1;
 2/12=2,40=1/2;
 3/5=7,11=9,14=-4,16=1,17=8,25=1,30=1,70=32201,72=1,74=-13,124=41/1,2,3,8;
 4//1;
 5/5=2,38=5,53=1/2;
 8/6=1,10=1,108=12/1;
 9/41=12,42=1,70=2/14;
 6/7=2,8=2,9=2,10=2/1;
 99/5=1,9=1/99;
 Structure from the checkpoint file:  "/scratch/js1212.574152/3-HTrans-GPOF-D-0.chk"
 -------------------
 Title Card Required
 -------------------
 Charge =  0 Multiplicity = 2
 Redundant internal coordinates found in file.  (old form).
 N,0,-0.6812204424,1.5714446512,-0.1151843257
 C,0,-1.8980458741,2.0724426765,0.1573060882
 C,0,0.2542020054,2.3156695708,-0.7337312176
 C,0,-2.2130043076,3.3950242073,-0.1230549877
 C,0,-1.2332474931,4.2056438045,-0.6946187336
 C,0,0.006668733,3.6598667482,-1.0102382167
 C,0,-2.8301078423,1.0856477455,0.7933335514
 H,0,-3.2079054167,3.7803773527,0.1024096842
 H,0,-1.4448443394,5.2532600543,-0.9153995777
 H,0,0.7774860232,4.2618902191,-1.4927635109
 C,0,1.501758813,1.6052955983,-1.1639386093
 N,0,-2.706045288,-0.2521557849,0.1762033279
 H,0,-3.8689280034,1.4551168434,0.7666989449
 H,0,-2.5472935954,0.9787115358,1.8533510924
 H,0,1.2840480949,1.201616587,-2.168352552
 P,0,1.7944441936,0.0527364269,-0.1721290193
 H,0,2.3653966509,2.2830717777,-1.217169729
 Ru,0,-0.4285118534,-0.4908118857,0.1038667192
 C,0,-3.2642439486,-0.2585208747,-1.1973453487
 C,0,2.9266974422,-1.0089251258,-1.2696771276
 C,0,-3.3749291047,-1.2384439918,1.0572228358
 C,0,2.743157469,0.668240808,1.3608104215
 C,0,2.0535538829,-1.7477273537,-2.285678225
 C,0,3.6198991299,-2.0622934651,-0.4034869324
 C,0,3.9570974054,-0.1703918309,-2.0296464396
 C,0,1.9164047739,1.8064153941,1.9726462018
 C,0,4.1298107826,1.2214452128,1.0280399279
 C,0,2.8810056304,-0.4494161107,2.3992966542
 C,0,-0.414719761,-0.6495732899,1.9331479238
 O,0,-0.4706708597,-0.7760587178,3.0904752116
 H,0,-2.6708602547,0.4567878045,-1.7807276084
 C,0,-4.7565768016,0.0046219834,-1.3175246252
 H,0,-3.0092357226,-1.2336456288,-1.6291553481
 H,0,-2.8864735262,-1.1609630485,2.0389663581
 C,0,-3.2865354465,-2.6640354791,0.5584360388
 H,0,-4.4300183455,-0.9361617197,1.2030369581
 O,0,-0.2993296111,-2.3803818146,-0.1769645539
 O,0,-0.5423012807,-0.3192543099,-1.9559310002
 H,0,-2.23698474,-2.9325402089,0.3488492945
 H,0,-3.8856146403,-2.8283089635,-0.3494915532
 H,0,-3.6753657369,-3.3373977675,1.3366789071
 H,0,-5.0268999541,-0.021202989,-2.3838131823
 H,0,-5.0545091359,0.9944057426,-0.9380976484
 H,0,-5.3696833291,-0.7542842293,-0.8082492959
 H,0,2.7127734609,-2.3866318247,-2.8975534554
 H,0,1.5132613808,-1.0552352497,-2.9438370244
 H,0,1.306153638,-2.3746252001,-1.7759479578
 H,0,4.1174459546,-2.7873471395,-1.0680507773
 H,0,2.8923301632,-2.6179290416,0.2075630934
 H,0,4.3917605552,-1.6374646373,0.2527207765
 H,0,4.575745716,-0.8494975934,-2.6398200338
 H,0,4.6342310544,0.393858402,-1.3767226495
 H,0,3.4750432267,0.5333701786,-2.723973076
 H,0,4.8263021213,0.439019878,0.6986421525
 H,0,4.5563081934,1.6752551004,1.9382129048
 H,0,4.0977296834,2.0069269374,0.2576756529
 H,0,3.5738199353,-1.2357379064,2.0782412029
 H,0,1.9201669215,-0.9195259857,2.6382118404
 H,0,3.2805527953,-0.0159381037,3.3312964676
 H,0,2.3929828053,2.1161209505,2.9169208772
 H,0,0.8867984703,1.5003296859,2.1990864018
 H,0,1.8785126575,2.6903796895,1.3189375624
 H,0,-0.5545931083,-1.2569862946,-2.1962107313
 Recover connectivity data from disk.
                           ----------------------------
                           !    Current Parameters    !
                           ! (Angstroms and Degrees)  !
 --------------------------                            --------------------------
 ! Name  Definition              Value                                          !
 --------------------------------------------------------------------------------
 ! R1    R(1,2)                  1.3438                                         !
 ! R2    R(1,3)                  1.3459                                         !
 ! R3    R(1,18)                 2.0892                                         !
 ! R4    R(2,4)                  1.3882                                         !
 ! R5    R(2,7)                  1.499                                          !
 ! R6    R(3,6)                  1.3945                                         !
 ! R7    R(3,11)                 1.4987                                         !
 ! R8    R(4,5)                  1.3942                                         !
 ! R9    R(4,8)                  1.0905                                         !
 ! R10   R(5,6)                  1.391                                          !
 ! R11   R(5,9)                  1.0913                                         !
 ! R12   R(6,10)                 1.0906                                         !
 ! R13   R(7,12)                 1.4785                                         !
 ! R14   R(7,13)                 1.1029                                         !
 ! R15   R(7,14)                 1.1023                                         !
 ! R16   R(11,15)                1.1042                                         !
 ! R17   R(11,16)                1.8654                                         !
 ! R18   R(11,17)                1.0991                                         !
 ! R19   R(12,19)                1.4827                                         !
 ! R20   R(12,21)                1.482                                          !
 ! R21   R(16,18)                2.305                                          !
 ! R22   R(16,20)                1.901                                          !
 ! R23   R(16,22)                1.9049                                         !
 ! R24   R(18,29)                1.8362                                         !
 ! R25   R(18,37)                1.9147                                         !
 ! R26   R(18,38)                2.0701                                         !
 ! R27   R(19,31)                1.0973                                         !
 ! R28   R(19,32)                1.5201                                         !
 ! R29   R(19,33)                1.0965                                         !
 ! R30   R(20,23)                1.5299                                         !
 ! R31   R(20,24)                1.5298                                         !
 ! R32   R(20,25)                1.5305                                         !
 ! R33   R(21,34)                1.0993                                         !
 ! R34   R(21,35)                1.5129                                         !
 ! R35   R(21,36)                1.1072                                         !
 ! R36   R(22,26)                1.534                                          !
 ! R37   R(22,27)                1.5296                                         !
 ! R38   R(22,28)                1.5319                                         !
 ! R39   R(23,45)                1.1033                                         !
 ! R40   R(23,46)                1.0976                                         !
 ! R41   R(23,47)                1.1007                                         !
 ! R42   R(24,48)                1.1022                                         !
 ! R43   R(24,49)                1.1007                                         !
 ! R44   R(24,50)                1.0986                                         !
 ! R45   R(25,51)                1.1028                                         !
 ! R46   R(25,52)                1.0969                                         !
 ! R47   R(25,53)                1.0999                                         !
 ! R48   R(26,60)                1.1021                                         !
 ! R49   R(26,61)                1.0977                                         !
 ! R50   R(26,62)                1.1001                                         !
 ! R51   R(27,54)                1.0981                                         !
 ! R52   R(27,55)                1.1028                                         !
 ! R53   R(27,56)                1.1007                                         !
 ! R54   R(28,57)                1.0961                                         !
 ! R55   R(28,58)                1.096                                          !
 ! R56   R(28,59)                1.1028                                         !
 ! R57   R(29,30)                1.1656                                         !
 ! R58   R(32,42)                1.1003                                         !
 ! R59   R(32,43)                1.1011                                         !
 ! R60   R(32,44)                1.1005                                         !
 ! R61   R(35,39)                1.1034                                         !
 ! R62   R(35,40)                1.1001                                         !
 ! R63   R(35,41)                1.1001                                         !
 ! R64   R(38,63)                0.9681                                         !
 ! A1    A(2,1,3)              121.0884                                         !
 ! A2    A(2,1,18)             117.1466                                         !
 ! A3    A(3,1,18)             120.6597                                         !
 ! A4    A(1,2,4)              121.3111                                         !
 ! A5    A(1,2,7)              113.8053                                         !
 ! A6    A(4,2,7)              124.8766                                         !
 ! A7    A(1,3,6)              120.0507                                         !
 ! A8    A(1,3,11)             116.6391                                         !
 ! A9    A(6,3,11)             123.2123                                         !
 ! A10   A(2,4,5)              118.5102                                         !
 ! A11   A(2,4,8)              120.1273                                         !
 ! A12   A(5,4,8)              121.3625                                         !
 ! A13   A(4,5,6)              119.4268                                         !
 ! A14   A(4,5,9)              120.3197                                         !
 ! A15   A(6,5,9)              120.2365                                         !
 ! A16   A(3,6,5)              119.4359                                         !
 ! A17   A(3,6,10)             119.6283                                         !
 ! A18   A(5,6,10)             120.9182                                         !
 ! A19   A(2,7,12)             111.4922                                         !
 ! A20   A(2,7,13)             110.7865                                         !
 ! A21   A(2,7,14)             108.2013                                         !
 ! A22   A(12,7,13)            111.8439                                         !
 ! A23   A(12,7,14)            106.9828                                         !
 ! A24   A(13,7,14)            107.3007                                         !
 ! A25   A(3,11,15)            105.6808                                         !
 ! A26   A(3,11,16)            111.8689                                         !
 ! A27   A(3,11,17)            112.067                                          !
 ! A28   A(15,11,16)           102.1401                                         !
 ! A29   A(15,11,17)           109.6525                                         !
 ! A30   A(16,11,17)           114.5629                                         !
 ! A31   A(7,12,19)            111.0376                                         !
 ! A32   A(7,12,21)            108.4313                                         !
 ! A33   A(19,12,21)           112.2068                                         !
 ! A34   A(11,16,18)            96.2351                                         !
 ! A35   A(11,16,20)           104.5542                                         !
 ! A36   A(11,16,22)           103.714                                          !
 ! A37   A(18,16,20)           120.7867                                         !
 ! A38   A(18,16,22)           117.3957                                         !
 ! A39   A(20,16,22)           110.3912                                         !
 ! A40   A(1,18,16)             82.6072                                         !
 ! A41   A(1,18,29)            100.9942                                         !
 ! A42   A(1,18,38)             78.8846                                         !
 ! A43   A(16,18,29)            97.61                                           !
 ! A44   A(16,18,37)            98.632                                          !
 ! A45   A(16,18,38)            85.0852                                         !
 ! A46   A(29,18,37)            93.4562                                         !
 ! A47   A(37,18,38)            86.5345                                         !
 ! A48   A(12,19,31)           106.6267                                         !
 ! A49   A(12,19,32)           116.2382                                         !
 ! A50   A(12,19,33)           106.3249                                         !
 ! A51   A(31,19,32)           112.0862                                         !
 ! A52   A(31,19,33)           104.1571                                         !
 ! A53   A(32,19,33)           110.5558                                         !
 ! A54   A(16,20,23)           108.252                                          !
 ! A55   A(16,20,24)           109.1188                                         !
 ! A56   A(16,20,25)           112.4391                                         !
 ! A57   A(23,20,24)           107.5848                                         !
 ! A58   A(23,20,25)           108.6063                                         !
 ! A59   A(24,20,25)           110.6911                                         !
 ! A60   A(12,21,34)           106.4668                                         !
 ! A61   A(12,21,35)           113.8744                                         !
 ! A62   A(12,21,36)           109.0683                                         !
 ! A63   A(34,21,35)           109.5658                                         !
 ! A64   A(34,21,36)           106.653                                          !
 ! A65   A(35,21,36)           110.8767                                         !
 ! A66   A(16,22,26)           106.9942                                         !
 ! A67   A(16,22,27)           113.1588                                         !
 ! A68   A(16,22,28)           110.7695                                         !
 ! A69   A(26,22,27)           107.8791                                         !
 ! A70   A(26,22,28)           108.6291                                         !
 ! A71   A(27,22,28)           109.2559                                         !
 ! A72   A(20,23,45)           107.8763                                         !
 ! A73   A(20,23,46)           111.9935                                         !
 ! A74   A(20,23,47)           110.7968                                         !
 ! A75   A(45,23,46)           109.0837                                         !
 ! A76   A(45,23,47)           109.4362                                         !
 ! A77   A(46,23,47)           107.6258                                         !
 ! A78   A(20,24,48)           108.427                                          !
 ! A79   A(20,24,49)           111.2476                                         !
 ! A80   A(20,24,50)           112.9733                                         !
 ! A81   A(48,24,49)           107.52                                           !
 ! A82   A(48,24,50)           107.2998                                         !
 ! A83   A(49,24,50)           109.15                                           !
 ! A84   A(20,25,51)           108.3621                                         !
 ! A85   A(20,25,52)           113.695                                          !
 ! A86   A(20,25,53)           111.6511                                         !
 ! A87   A(51,25,52)           107.446                                          !
 ! A88   A(51,25,53)           106.8938                                         !
 ! A89   A(52,25,53)           108.4921                                         !
 ! A90   A(22,26,60)           108.4912                                         !
 ! A91   A(22,26,61)           112.3879                                         !
 ! A92   A(22,26,62)           112.1941                                         !
 ! A93   A(60,26,61)           107.8901                                         !
 ! A94   A(60,26,62)           107.3507                                         !
 ! A95   A(61,26,62)           108.3201                                         !
 ! A96   A(22,27,54)           112.493                                          !
 ! A97   A(22,27,55)           108.6549                                         !
 ! A98   A(22,27,56)           112.5787                                         !
 ! A99   A(54,27,55)           107.1863                                         !
 ! A100  A(54,27,56)           108.4833                                         !
 ! A101  A(55,27,56)           107.1723                                         !
 ! A102  A(22,28,57)           112.4406                                         !
 ! A103  A(22,28,58)           112.447                                          !
 ! A104  A(22,28,59)           108.587                                          !
 ! A105  A(57,28,58)           108.0751                                         !
 ! A106  A(57,28,59)           107.4895                                         !
 ! A107  A(58,28,59)           107.577                                          !
 ! A108  A(19,32,42)           108.2846                                         !
 ! A109  A(19,32,43)           113.2036                                         !
 ! A110  A(19,32,44)           113.0141                                         !
 ! A111  A(42,32,43)           106.7715                                         !
 ! A112  A(42,32,44)           107.1807                                         !
 ! A113  A(43,32,44)           108.0392                                         !
 ! A114  A(21,35,39)           110.3334                                         !
 ! A115  A(21,35,40)           112.3947                                         !
 ! A116  A(21,35,41)           108.837                                          !
 ! A117  A(39,35,40)           108.9582                                         !
 ! A118  A(39,35,41)           108.7602                                         !
 ! A119  A(40,35,41)           107.4556                                         !
 ! A120  A(18,38,63)            99.636                                          !
 ! A121  L(1,18,37,16,-1)      181.2392                                         !
 ! A122  L(29,18,38,1,-1)      179.8788                                         !
 ! A123  L(18,29,30,7,-1)      178.0514                                         !
 ! A124  L(1,18,37,16,-2)      194.8685                                         !
 ! A125  L(29,18,38,1,-2)      182.7768                                         !
 ! A126  L(18,29,30,7,-2)      176.9311                                         !
 ! D1    D(3,1,2,4)             -3.4824                                         !
 ! D2    D(3,1,2,7)            177.4369                                         !
 ! D3    D(18,1,2,4)          -171.5383                                         !
 ! D4    D(18,1,2,7)             9.381                                          !
 ! D5    D(2,1,3,6)              4.9773                                         !
 ! D6    D(2,1,3,11)          -171.5416                                         !
 ! D7    D(18,1,3,6)           172.6153                                         !
 ! D8    D(18,1,3,11)           -3.9036                                         !
 ! D9    D(2,1,18,16)         -169.7335                                         !
 ! D10   D(2,1,18,29)          -73.3704                                         !
 ! D11   D(2,1,18,38)          103.8528                                         !
 ! D12   D(3,1,18,16)           22.1565                                         !
 ! D13   D(3,1,18,29)          118.5197                                         !
 ! D14   D(3,1,18,38)          -64.2572                                         !
 ! D15   D(1,2,4,5)             -0.2103                                         !
 ! D16   D(1,2,4,8)            179.7528                                         !
 ! D17   D(7,2,4,5)            178.7644                                         !
 ! D18   D(7,2,4,8)             -1.2725                                         !
 ! D19   D(1,2,7,12)           -40.6561                                         !
 ! D20   D(1,2,7,13)          -165.9093                                         !
 ! D21   D(1,2,7,14)            76.7256                                         !
 ! D22   D(4,2,7,12)           140.3013                                         !
 ! D23   D(4,2,7,13)            15.0481                                         !
 ! D24   D(4,2,7,14)          -102.3171                                         !
 ! D25   D(1,3,6,5)             -2.7972                                         !
 ! D26   D(1,3,6,10)           178.7146                                         !
 ! D27   D(11,3,6,5)           173.4834                                         !
 ! D28   D(11,3,6,10)           -5.0049                                         !
 ! D29   D(1,3,11,15)           87.1811                                         !
 ! D30   D(1,3,11,16)          -23.1867                                         !
 ! D31   D(1,3,11,17)         -153.4304                                         !
 ! D32   D(6,3,11,15)          -89.2173                                         !
 ! D33   D(6,3,11,16)          160.415                                          !
 ! D34   D(6,3,11,17)           30.1713                                         !
 ! D35   D(2,4,5,6)              2.287                                          !
 ! D36   D(2,4,5,9)           -179.212                                          !
 ! D37   D(8,4,5,6)           -177.6756                                         !
 ! D38   D(8,4,5,9)              0.8253                                         !
 ! D39   D(4,5,6,3)             -0.8203                                         !
 ! D40   D(4,5,6,10)           177.648                                          !
 ! D41   D(9,5,6,3)           -179.3225                                         !
 ! D42   D(9,5,6,10)            -0.8543                                         !
 ! D43   D(2,7,12,19)          -70.6551                                         !
 ! D44   D(2,7,12,21)          165.6331                                         !
 ! D45   D(13,7,12,19)          54.008                                          !
 ! D46   D(13,7,12,21)         -69.7038                                         !
 ! D47   D(14,7,12,19)         171.2289                                         !
 ! D48   D(14,7,12,21)          47.5171                                         !
 ! D49   D(3,11,16,18)          33.8875                                         !
 ! D50   D(3,11,16,20)         157.9658                                         !
 ! D51   D(3,11,16,22)         -86.3189                                         !
 ! D52   D(15,11,16,18)        -78.7089                                         !
 ! D53   D(15,11,16,20)         45.3694                                         !
 ! D54   D(15,11,16,22)        161.0847                                         !
 ! D55   D(17,11,16,18)        162.8305                                         !
 ! D56   D(17,11,16,20)        -73.0912                                         !
 ! D57   D(17,11,16,22)         42.6241                                         !
 ! D58   D(7,12,19,31)          61.6067                                         !
 ! D59   D(7,12,19,32)         -64.1731                                         !
 ! D60   D(7,12,19,33)         172.3045                                         !
 ! D61   D(21,12,19,31)       -176.8664                                         !
 ! D62   D(21,12,19,32)         57.3538                                         !
 ! D63   D(21,12,19,33)        -66.1686                                         !
 ! D64   D(7,12,21,34)         -57.4959                                         !
 ! D65   D(7,12,21,35)        -178.3408                                         !
 ! D66   D(7,12,21,36)          57.2348                                         !
 ! D67   D(19,12,21,34)        179.4963                                         !
 ! D68   D(19,12,21,35)         58.6513                                         !
 ! D69   D(19,12,21,36)        -65.7731                                         !
 ! D70   D(11,16,18,1)         -26.4926                                         !
 ! D71   D(11,16,18,29)       -126.6691                                         !
 ! D72   D(11,16,18,37)        138.6389                                         !
 ! D73   D(11,16,18,38)         52.9068                                         !
 ! D74   D(20,16,18,1)        -137.5531                                         !
 ! D75   D(20,16,18,29)        122.2704                                         !
 ! D76   D(20,16,18,37)         27.5784                                         !
 ! D77   D(20,16,18,38)        -58.1537                                         !
 ! D78   D(22,16,18,1)          82.487                                          !
 ! D79   D(22,16,18,29)        -17.6894                                         !
 ! D80   D(22,16,18,37)       -112.3815                                         !
 ! D81   D(22,16,18,38)        161.8864                                         !
 ! D82   D(11,16,20,23)        -82.5351                                         !
 ! D83   D(11,16,20,24)        160.6561                                         !
 ! D84   D(11,16,20,25)         37.4437                                         !
 ! D85   D(18,16,20,23)         24.0418                                         !
 ! D86   D(18,16,20,24)        -92.767                                          !
 ! D87   D(18,16,20,25)        144.0206                                         !
 ! D88   D(22,16,20,23)        166.4986                                         !
 ! D89   D(22,16,20,24)         49.6898                                         !
 ! D90   D(22,16,20,25)        -73.5226                                         !
 ! D91   D(11,16,22,26)         52.9866                                         !
 ! D92   D(11,16,22,27)        -65.6918                                         !
 ! D93   D(11,16,22,28)        171.2256                                         !
 ! D94   D(18,16,22,26)        -51.6323                                         !
 ! D95   D(18,16,22,27)       -170.3107                                         !
 ! D96   D(18,16,22,28)         66.6067                                         !
 ! D97   D(20,16,22,26)        164.4973                                         !
 ! D98   D(20,16,22,27)         45.8189                                         !
 ! D99   D(20,16,22,28)        -77.2637                                         !
 ! D100  D(1,18,38,63)        -173.3289                                         !
 ! D101  D(16,18,38,63)        103.2586                                         !
 ! D102  D(37,18,38,63)          4.2765                                         !
 ! D103  D(12,19,32,42)        179.5216                                         !
 ! D104  D(12,19,32,43)         61.3386                                         !
 ! D105  D(12,19,32,44)        -61.9011                                         !
 ! D106  D(31,19,32,42)         56.5468                                         !
 ! D107  D(31,19,32,43)        -61.6361                                         !
 ! D108  D(31,19,32,44)        175.1242                                         !
 ! D109  D(33,19,32,42)        -59.1789                                         !
 ! D110  D(33,19,32,43)       -177.3618                                         !
 ! D111  D(33,19,32,44)         59.3985                                         !
 ! D112  D(16,20,23,45)       -178.1882                                         !
 ! D113  D(16,20,23,46)         61.7611                                         !
 ! D114  D(16,20,23,47)        -58.4193                                         !
 ! D115  D(24,20,23,45)        -60.3935                                         !
 ! D116  D(24,20,23,46)        179.5557                                         !
 ! D117  D(24,20,23,47)         59.3754                                         !
 ! D118  D(25,20,23,45)         59.4601                                         !
 ! D119  D(25,20,23,46)        -60.5906                                         !
 ! D120  D(25,20,23,47)        179.229                                          !
 ! D121  D(16,20,24,48)        169.3                                            !
 ! D122  D(16,20,24,49)         51.2656                                         !
 ! D123  D(16,20,24,50)        -71.9043                                         !
 ! D124  D(23,20,24,48)         52.0682                                         !
 ! D125  D(23,20,24,49)        -65.9662                                         !
 ! D126  D(23,20,24,50)        170.8639                                         !
 ! D127  D(25,20,24,48)        -66.4528                                         !
 ! D128  D(25,20,24,49)        175.5128                                         !
 ! D129  D(25,20,24,50)         52.3429                                         !
 ! D130  D(16,20,25,51)        179.8911                                         !
 ! D131  D(16,20,25,52)         60.5082                                         !
 ! D132  D(16,20,25,53)        -62.6449                                         !
 ! D133  D(23,20,25,51)        -60.3356                                         !
 ! D134  D(23,20,25,52)       -179.7185                                         !
 ! D135  D(23,20,25,53)         57.1284                                         !
 ! D136  D(24,20,25,51)         57.5631                                         !
 ! D137  D(24,20,25,52)        -61.8197                                         !
 ! D138  D(24,20,25,53)        175.0271                                         !
 ! D139  D(12,21,35,39)         52.5909                                         !
 ! D140  D(12,21,35,40)        -69.241                                          !
 ! D141  D(12,21,35,41)        171.8533                                         !
 ! D142  D(34,21,35,39)        -66.5059                                         !
 ! D143  D(34,21,35,40)        171.6622                                         !
 ! D144  D(34,21,35,41)         52.7565                                         !
 ! D145  D(36,21,35,39)        176.0386                                         !
 ! D146  D(36,21,35,40)         54.2067                                         !
 ! D147  D(36,21,35,41)        -64.699                                          !
 ! D148  D(16,22,26,60)        174.5817                                         !
 ! D149  D(16,22,26,61)         55.3674                                         !
 ! D150  D(16,22,26,62)        -66.9904                                         !
 ! D151  D(27,22,26,60)        -63.3658                                         !
 ! D152  D(27,22,26,61)        177.4199                                         !
 ! D153  D(27,22,26,62)         55.0621                                         !
 ! D154  D(28,22,26,60)         54.9563                                         !
 ! D155  D(28,22,26,61)        -64.2581                                         !
 ! D156  D(28,22,26,62)        173.3842                                         !
 ! D157  D(16,22,27,54)        -68.8723                                         !
 ! D158  D(16,22,27,55)        172.6163                                         !
 ! D159  D(16,22,27,56)         54.07                                           !
 ! D160  D(26,22,27,54)        172.9629                                         !
 ! D161  D(26,22,27,55)         54.4515                                         !
 ! D162  D(26,22,27,56)        -64.0948                                         !
 ! D163  D(28,22,27,54)         55.0434                                         !
 ! D164  D(28,22,27,55)        -63.4681                                         !
 ! D165  D(28,22,27,56)        177.9857                                         !
 ! D166  D(16,22,28,57)         70.5282                                         !
 ! D167  D(16,22,28,58)        -51.736                                          !
 ! D168  D(16,22,28,59)       -170.6602                                         !
 ! D169  D(26,22,28,57)       -172.2317                                         !
 ! D170  D(26,22,28,58)         65.5041                                         !
 ! D171  D(26,22,28,59)        -53.4201                                         !
 ! D172  D(27,22,28,57)        -54.7836                                         !
 ! D173  D(27,22,28,58)       -177.0478                                         !
 ! D174  D(27,22,28,59)         64.0279                                         !
 --------------------------------------------------------------------------------
 Stoichiometry    C20H36N2O3PRu(2)
 Framework group  C1[X(C20H36N2O3PRu)]
 Deg. of freedom   183
 Full point group                 C1      NOp   1
 Largest Abelian subgroup         C1      NOp   1
 Largest concise Abelian subgroup C1      NOp   1
                         Standard orientation:                         
 ---------------------------------------------------------------------
 Center     Atomic      Atomic             Coordinates (Angstroms)
 Number     Number       Type             X           Y           Z
 ---------------------------------------------------------------------
      1          7           0       -0.735499    1.421249   -0.022084
      2          6           0       -1.967498    1.864556    0.280525
      3          6           0        0.173400    2.231700   -0.595282
      4          6           0       -2.326523    3.190446    0.080169
      5          6           0       -1.375385    4.065783   -0.442168
      6          6           0       -0.118938    3.581150   -0.790525
      7          6           0       -2.865008    0.811167    0.856616
      8          1           0       -3.333024    3.528526    0.328797
      9          1           0       -1.621904    5.117192   -0.599596
     10          1           0        0.630459    4.236143   -1.236405
     11          6           0        1.442625    1.589979   -1.067900
     12          7           0       -2.698455   -0.482403    0.160271
     13          1           0       -3.915494    1.147065    0.852667
     14          1           0       -2.576250    0.650267    1.908180
     15          1           0        1.235886    1.240277   -2.094628
     16         15           0        1.788692   -0.008739   -0.171166
     17          1           0        2.283342    2.297874   -1.080757
     18         44           0       -0.414480   -0.640960    0.072719
     19          6           0       -3.259478   -0.424834   -1.210933
     20          6           0        2.952624   -0.964721   -1.330949
     21          6           0       -3.332352   -1.541285    0.980825
     22          6           0        2.720344    0.544742    1.395515
     23          6           0        2.101818   -1.669707   -2.389056
     24          6           0        3.682243   -2.044662   -0.529836
     25          6           0        3.952999   -0.048568   -2.039699
     26          6           0        1.858046    1.616266    2.074914
     27          6           0        4.087213    1.162386    1.095913
     28          6           0        2.897448   -0.628005    2.365006
     29          6           0       -0.391021   -0.908567    1.889172
     30          8           0       -0.439963   -1.105991    3.036850
     31          1           0       -2.691393    0.343367   -1.750611
     32          6           0       -4.759956   -0.204379   -1.314434
     33          1           0       -2.973545   -1.363363   -1.700589
     34          1           0       -2.844328   -1.506718    1.965229
     35          6           0       -3.198270   -2.930710    0.397359
     36          1           0       -4.396466   -1.283293    1.144990
     37          8           0       -0.223822   -2.504996   -0.321042
     38          8           0       -0.538864   -0.350068   -1.973022
     39          1           0       -2.140958   -3.151364    0.171566
     40          1           0       -3.793819   -3.059946   -0.518520
     41          1           0       -3.562821   -3.661992    1.133972
     42          1           0       -5.031872   -0.175140   -2.380229
     43          1           0       -5.089399    0.750498   -0.876168
     44          1           0       -5.346497   -1.012283   -0.851336
     45          1           0        2.780231   -2.248662   -3.038461
     46          1           0        1.537414   -0.957220   -3.004234
     47          1           0        1.376710   -2.350374   -1.917522
     48          1           0        4.201781   -2.711743   -1.236931
     49          1           0        2.974855   -2.659654    0.047102
     50          1           0        4.441288   -1.634686    0.150332
     51          1           0        4.592192   -0.669071   -2.689800
     52          1           0        4.612768    0.497572   -1.354401
     53          1           0        3.446343    0.679255   -2.690330
     54          1           0        4.808292    0.424542    0.719848
     55          1           0        4.500745    1.574645    2.031483
     56          1           0        4.027409    1.991153    0.374082
     57          1           0        3.615000   -1.370357    1.997036
     58          1           0        1.953197   -1.143062    2.575716
     59          1           0        3.284767   -0.238228    3.321156
     60          1           0        2.326459    1.884368    3.035855
     61          1           0        0.839632    1.263325    2.283044
     62          1           0        1.789474    2.536099    1.475440
     63          1           0       -0.520851   -1.271601   -2.269129
 ---------------------------------------------------------------------
 Rotational constants (GHZ):           0.2490604           0.1548118           0.1342958
 General basis read from cards:  (5D, 7F)
 ======================================================================================================
                                       Pseudopotential Parameters
 ======================================================================================================
  Center     Atomic      Valence      Angular      Power
  Number     Number     Electrons     Momentum     of R      Exponent        Coefficient   SO-Coeffient
 ======================================================================================================
    1          7
                                   No pseudopotential on this center.
    2          6
                                   No pseudopotential on this center.
    3          6
                                   No pseudopotential on this center.
    4          6
                                   No pseudopotential on this center.
    5          6
                                   No pseudopotential on this center.
    6          6
                                   No pseudopotential on this center.
    7          6
                                   No pseudopotential on this center.
    8          1
                                   No pseudopotential on this center.
    9          1
                                   No pseudopotential on this center.
   10          1
                                   No pseudopotential on this center.
   11          6
                                   No pseudopotential on this center.
   12          7
                                   No pseudopotential on this center.
   13          1
                                   No pseudopotential on this center.
   14          1
                                   No pseudopotential on this center.
   15          1
                                   No pseudopotential on this center.
   16         15
                                   No pseudopotential on this center.
   17          1
                                   No pseudopotential on this center.
   18         44           16
                                      G and up 
                                                     2        1.0000000        0.00000000    0.00000000
                                      S - G
                                                     2       11.1052690      209.82297100    0.00000000
                                                     2        5.4147450       30.65472600    0.00000000
                                      P - G
                                                     2        9.7712710      146.33618200    0.00000000
                                                     2        5.0739910       24.12787700    0.00000000
                                      D - G
                                                     2        7.6714230       67.51589700    0.00000000
                                                     2        4.1365650        9.87010400    0.00000000
                                      F - G
                                                     2       11.3600000      -28.34061600    0.00000000
                                                     2        5.6800000       -4.94462900    0.00000000
   19          6
                                   No pseudopotential on this center.
   20          6
                                   No pseudopotential on this center.
   21          6
                                   No pseudopotential on this center.
   22          6
                                   No pseudopotential on this center.
   23          6
                                   No pseudopotential on this center.
   24          6
                                   No pseudopotential on this center.
   25          6
                                   No pseudopotential on this center.
   26          6
                                   No pseudopotential on this center.
   27          6
                                   No pseudopotential on this center.
   28          6
                                   No pseudopotential on this center.
   29          6
                                   No pseudopotential on this center.
   30          8
                                   No pseudopotential on this center.
   31          1
                                   No pseudopotential on this center.
   32          6
                                   No pseudopotential on this center.
   33          1
                                   No pseudopotential on this center.
   34          1
                                   No pseudopotential on this center.
   35          6
                                   No pseudopotential on this center.
   36          1
                                   No pseudopotential on this center.
   37          8
                                   No pseudopotential on this center.
   38          8
                                   No pseudopotential on this center.
   39          1
                                   No pseudopotential on this center.
   40          1
                                   No pseudopotential on this center.
   41          1
                                   No pseudopotential on this center.
   42          1
                                   No pseudopotential on this center.
   43          1
                                   No pseudopotential on this center.
   44          1
                                   No pseudopotential on this center.
   45          1
                                   No pseudopotential on this center.
   46          1
                                   No pseudopotential on this center.
   47          1
                                   No pseudopotential on this center.
   48          1
                                   No pseudopotential on this center.
   49          1
                                   No pseudopotential on this center.
   50          1
                                   No pseudopotential on this center.
   51          1
                                   No pseudopotential on this center.
   52          1
                                   No pseudopotential on this center.
   53          1
                                   No pseudopotential on this center.
   54          1
                                   No pseudopotential on this center.
   55          1
                                   No pseudopotential on this center.
   56          1
                                   No pseudopotential on this center.
   57          1
                                   No pseudopotential on this center.
   58          1
                                   No pseudopotential on this center.
   59          1
                                   No pseudopotential on this center.
   60          1
                                   No pseudopotential on this center.
   61          1
                                   No pseudopotential on this center.
   62          1
                                   No pseudopotential on this center.
   63          1
                                   No pseudopotential on this center.
 ======================================================================================================
 There are   613 symmetry adapted cartesian basis functions of A   symmetry.
 There are   584 symmetry adapted basis functions of A   symmetry.
   584 basis functions,  1213 primitive gaussians,   613 cartesian basis functions
   113 alpha electrons      112 beta electrons
       nuclear repulsion energy      3472.6946136602 Hartrees.
 NAtoms=   63 NActive=   63 NUniq=   63 SFac= 1.00D+00 NAtFMM=   60 NAOKFM=T Big=T
 Integral buffers will be    131072 words long.
 Regular integral format.
 Two-electron integral symmetry is turned on.
 Nuclear repulsion after empirical dispersion term =     3472.5989061012 Hartrees.
 ------------------------------------------------------------------------------
 Polarizable Continuum Model (PCM)
 =================================
 Model                : PCM.
 Atomic radii         : SMD-Coulomb.
 Polarization charges : Total charges.
 Charge compensation  : None.
 Solution method      : On-the-fly selection.
 Cavity type          : VdW (van der Waals Surface) (Alpha=1.000).
 Cavity algorithm     : GePol (No added spheres)
                        Default sphere list used, NSphG=   63.
                        Lebedev-Laikov grids with approx.  5.0 points / Ang**2.
                        Smoothing algorithm: York/Karplus (Gamma=1.0000).
                        Polarization charges: spherical gaussians, with
                                              point-specific exponents (IZeta= 3).
                        Self-potential: point-specific (ISelfS= 7).
                        Self-field    : sphere-specific E.n sum rule (ISelfD= 2).
 Solvent              : Water, Eps=  78.355300 Eps(inf)=   1.777849
 ------------------------------------------------------------------------------
 ------------------------------------------------------------------------------
 Atomic radii for non-electrostatic terms: SMD-CDS.
 ------------------------------------------------------------------------------
 Nuclear repulsion after PCM non-electrostatic terms =     3472.6155482945 Hartrees.
 One-electron integrals computed using PRISM.
   1 Symmetry operations used in ECPInt.
 ECPInt:  NShTT=   39340 NPrTT=  276277 LenC2=   36552 LenP2D=  140065.
 LDataN:  DoStor=T MaxTD1= 6 Len=  172
 Number of processors reduced to  16 by ecpmxn.
 NBasis=   584 RedAO= T EigKep=  4.40D-04  NBF=   584
 NBsUse=   584 1.00D-06 EigRej= -1.00D+00 NBFU=   584
 Defaulting to unpruned grid for atomic number  44.
 ExpMin= 1.60D-02 ExpMax= 9.48D+04 ExpMxC= 3.24D+03 IAcc=3 IRadAn=         5 AccDes= 0.00D+00
 Harris functional with IExCor= 1009 and IRadAn=       5 diagonalized for initial guess.
 HarFok:  IExCor= 1009 AccDes= 0.00D+00 IRadAn=         5 IDoV= 1 UseB2=F ITyADJ=14
 ICtDFT=  3500011 ScaDFX=  1.000000  1.000000  1.000000  1.000000
 Defaulting to unpruned grid for atomic number  44.
 FoFCou: FMM=F IPFlag=           0 FMFlag=      100000 FMFlg1=        2001
         NFxFlg=           0 DoJE=T BraDBF=F KetDBF=T FulRan=T
         wScrn=  0.000000 ICntrl=       500 IOpCl=  0 I1Cent=   200000004 NGrid=           0
         NMat0=    1 NMatS0=      1 NMatT0=    0 NMatD0=    1 NMtDS0=    0 NMtDT0=    0
 Petite list used in FoFCou.
 Initial guess <Sx>= 0.0000 <Sy>= 0.0000 <Sz>= 0.5000 <S**2>= 0.7500 S= 0.5000
 Requested convergence on RMS density matrix=1.00D-08 within 128 cycles.
 Requested convergence on MAX density matrix=1.00D-06.
 Requested convergence on             energy=1.00D-06.
 No special actions if energy rises.
 Defaulting to unpruned grid for atomic number  44.
 Defaulting to unpruned grid for atomic number  44.
 Defaulting to unpruned grid for atomic number  44.
 Defaulting to unpruned grid for atomic number  44.
 Defaulting to unpruned grid for atomic number  44.
 Defaulting to unpruned grid for atomic number  44.
 Defaulting to unpruned grid for atomic number  44.
 Defaulting to unpruned grid for atomic number  44.
 Defaulting to unpruned grid for atomic number  44.
 Defaulting to unpruned grid for atomic number  44.
 Defaulting to unpruned grid for atomic number  44.
 Defaulting to unpruned grid for atomic number  44.
 Defaulting to unpruned grid for atomic number  44.
 Defaulting to unpruned grid for atomic number  44.
 Defaulting to unpruned grid for atomic number  44.
 Defaulting to unpruned grid for atomic number  44.
 Defaulting to unpruned grid for atomic number  44.
 Defaulting to unpruned grid for atomic number  44.
 Defaulting to unpruned grid for atomic number  44.
 Defaulting to unpruned grid for atomic number  44.
 Inv3:  Mode=1 IEnd=    44444403.
 Iteration    1 A*A^-1 deviation from unit magnitude is 1.11D-14 for   1128.
 Iteration    1 A*A^-1 deviation from orthogonality  is 3.94D-15 for   2439    741.
 Iteration    1 A^-1*A deviation from unit magnitude is 1.09D-14 for   1128.
 Iteration    1 A^-1*A deviation from orthogonality  is 9.63D-15 for   2196   2149.
 EnCoef did   100 forward-backward iterations
 EnCoef did   100 forward-backward iterations
 Restarting incremental Fock formation.
 Error on total polarization charges =  0.07121
 SCF Done:  E(UPBE1PBE) =  -1554.03826480     A.U. after   27 cycles
            NFock= 27  Conv=0.69D-08     -V/T= 2.0468
 <Sx>= 0.0000 <Sy>= 0.0000 <Sz>= 0.5000 <S**2>= 0.7604 S= 0.5052
 <L.S>= 0.000000000000E+00
 SMD-CDS (non-electrostatic) energy       (kcal/mol) =      10.44
 (included in total energy above)
 Annihilation of the first spin contaminant:
 S**2 before annihilation     0.7604,   after     0.7501
 DoSCS=F DFT=T ScalE2(SS,OS)=  1.000000  1.000000
 ExpMin= 1.60D-02 ExpMax= 9.48D+04 ExpMxC= 3.24D+03 IAcc=3 IRadAn=         5 AccDes= 0.00D+00
 HarFok:  IExCor=  205 AccDes= 0.00D+00 IRadAn=         5 IDoV=-2 UseB2=F ITyADJ=14
 ICtDFT= 12500011 ScaDFX=  1.000000  1.000000  1.000000  1.000000
 Defaulting to unpruned grid for atomic number  44.
 GSVD:  LWork=       -1428 too small for GESVD, short by        6290 words or        6290 for optimal perf.
 Range of M.O.s used for correlation:    35   584
 NBasis=   584 NAE=   113 NBE=   112 NFC=    34 NFV=     0
 NROrb=    550 NOA=    79 NOB=    78 NVA=   471 NVB=   472
 NEqPCM:  Using non-equilibrium solvation (IEInf=1, Eps=  78.3553, EpsInf=   1.7778)
 Inv3:  Mode=1 IEnd=    44444403.
 Iteration    1 A*A^-1 deviation from unit magnitude is 1.02D-14 for    563.
 Iteration    1 A*A^-1 deviation from orthogonality  is 2.87D-15 for   3441    357.
 Iteration    1 A^-1*A deviation from unit magnitude is 1.07D-14 for    563.
 Iteration    1 A^-1*A deviation from orthogonality  is 1.58D-13 for   2196   2149.
 Orbital symmetries:
 Alpha Orbitals:
       Occupied  (A) (A) (A) (A) (A) (A) (A) (A) (A) (A) (A) (A)
                 (A) (A) (A) (A) (A) (A) (A) (A) (A) (A) (A) (A)
                 (A) (A) (A) (A) (A) (A) (A) (A) (A) (A) (A) (A)
                 (A) (A) (A) (A) (A) (A) (A) (A) (A) (A) (A) (A)
                 (A) (A) (A) (A) (A) (A) (A) (A) (A) (A) (A) (A)
                 (A) (A) (A) (A) (A) (A) (A) (A) (A) (A) (A) (A)
                 (A) (A) (A) (A) (A) (A) (A) (A) (A) (A) (A) (A)
                 (A) (A) (A) (A) (A) (A) (A) (A) (A) (A) (A) (A)
                 (A) (A) (A) (A) (A) (A) (A) (A) (A) (A) (A) (A)
                 (A) (A) (A) (A) (A)
       Virtual   (A) (A) (A) (A) (A) (A) (A) (A) (A) (A) (A) (A)
                 (A) (A) (A) (A) (A) (A) (A) (A) (A) (A) (A) (A)
                 (A) (A) (A) (A) (A) (A) (A) (A) (A) (A) (A) (A)
                 (A) (A) (A) (A) (A) (A) (A) (A) (A) (A) (A) (A)
                 (A) (A) (A) (A) (A) (A) (A) (A) (A) (A) (A) (A)
                 (A) (A) (A) (A) (A) (A) (A) (A) (A) (A) (A) (A)
                 (A) (A) (A) (A) (A) (A) (A) (A) (A) (A) (A) (A)
                 (A) (A) (A) (A) (A) (A) (A) (A) (A) (A) (A) (A)
                 (A) (A) (A) (A) (A) (A) (A) (A) (A) (A) (A) (A)
                 (A) (A) (A) (A) (A) (A) (A) (A) (A) (A) (A) (A)
                 (A) (A) (A) (A) (A) (A) (A) (A) (A) (A) (A) (A)
                 (A) (A) (A) (A) (A) (A) (A) (A) (A) (A) (A) (A)
                 (A) (A) (A) (A) (A) (A) (A) (A) (A) (A) (A) (A)
                 (A) (A) (A) (A) (A) (A) (A) (A) (A) (A) (A) (A)
                 (A) (A) (A) (A) (A) (A) (A) (A) (A) (A) (A) (A)
                 (A) (A) (A) (A) (A) (A) (A) (A) (A) (A) (A) (A)
                 (A) (A) (A) (A) (A) (A) (A) (A) (A) (A) (A) (A)
                 (A) (A) (A) (A) (A) (A) (A) (A) (A) (A) (A) (A)
                 (A) (A) (A) (A) (A) (A) (A) (A) (A) (A) (A) (A)
                 (A) (A) (A) (A) (A) (A) (A) (A) (A) (A) (A) (A)
                 (A) (A) (A) (A) (A) (A) (A) (A) (A) (A) (A) (A)
                 (A) (A) (A) (A) (A) (A) (A) (A) (A) (A) (A) (A)
                 (A) (A) (A) (A) (A) (A) (A) (A) (A) (A) (A) (A)
                 (A) (A) (A) (A) (A) (A) (A) (A) (A) (A) (A) (A)
                 (A) (A) (A) (A) (A) (A) (A) (A) (A) (A) (A) (A)
                 (A) (A) (A) (A) (A) (A) (A) (A) (A) (A) (A) (A)
                 (A) (A) (A) (A) (A) (A) (A) (A) (A) (A) (A) (A)
                 (A) (A) (A) (A) (A) (A) (A) (A) (A) (A) (A) (A)
                 (A) (A) (A) (A) (A) (A) (A) (A) (A) (A) (A) (A)
                 (A) (A) (A) (A) (A) (A) (A) (A) (A) (A) (A) (A)
                 (A) (A) (A) (A) (A) (A) (A) (A) (A) (A) (A) (A)
                 (A) (A) (A) (A) (A) (A) (A) (A) (A) (A) (A) (A)
                 (A) (A) (A) (A) (A) (A) (A) (A) (A) (A) (A) (A)
                 (A) (A) (A) (A) (A) (A) (A) (A) (A) (A) (A) (A)
                 (A) (A) (A) (A) (A) (A) (A) (A) (A) (A) (A) (A)
                 (A) (A) (A) (A) (A) (A) (A) (A) (A) (A) (A) (A)
                 (A) (A) (A) (A) (A) (A) (A) (A) (A) (A) (A) (A)
                 (A) (A) (A) (A) (A) (A) (A) (A) (A) (A) (A) (A)
                 (A) (A) (A) (A) (A) (A) (A) (A) (A) (A) (A) (A)
                 (A) (A) (A)
 Beta  Orbitals:
       Occupied  (A) (A) (A) (A) (A) (A) (A) (A) (A) (A) (A) (A)
                 (A) (A) (A) (A) (A) (A) (A) (A) (A) (A) (A) (A)
                 (A) (A) (A) (A) (A) (A) (A) (A) (A) (A) (A) (A)
                 (A) (A) (A) (A) (A) (A) (A) (A) (A) (A) (A) (A)
                 (A) (A) (A) (A) (A) (A) (A) (A) (A) (A) (A) (A)
                 (A) (A) (A) (A) (A) (A) (A) (A) (A) (A) (A) (A)
                 (A) (A) (A) (A) (A) (A) (A) (A) (A) (A) (A) (A)
                 (A) (A) (A) (A) (A) (A) (A) (A) (A) (A) (A) (A)
                 (A) (A) (A) (A) (A) (A) (A) (A) (A) (A) (A) (A)
                 (A) (A) (A) (A)
       Virtual   (A) (A) (A) (A) (A) (A) (A) (A) (A) (A) (A) (A)
                 (A) (A) (A) (A) (A) (A) (A) (A) (A) (A) (A) (A)
                 (A) (A) (A) (A) (A) (A) (A) (A) (A) (A) (A) (A)
                 (A) (A) (A) (A) (A) (A) (A) (A) (A) (A) (A) (A)
                 (A) (A) (A) (A) (A) (A) (A) (A) (A) (A) (A) (A)
                 (A) (A) (A) (A) (A) (A) (A) (A) (A) (A) (A) (A)
                 (A) (A) (A) (A) (A) (A) (A) (A) (A) (A) (A) (A)
                 (A) (A) (A) (A) (A) (A) (A) (A) (A) (A) (A) (A)
                 (A) (A) (A) (A) (A) (A) (A) (A) (A) (A) (A) (A)
                 (A) (A) (A) (A) (A) (A) (A) (A) (A) (A) (A) (A)
                 (A) (A) (A) (A) (A) (A) (A) (A) (A) (A) (A) (A)
                 (A) (A) (A) (A) (A) (A) (A) (A) (A) (A) (A) (A)
                 (A) (A) (A) (A) (A) (A) (A) (A) (A) (A) (A) (A)
                 (A) (A) (A) (A) (A) (A) (A) (A) (A) (A) (A) (A)
                 (A) (A) (A) (A) (A) (A) (A) (A) (A) (A) (A) (A)
                 (A) (A) (A) (A) (A) (A) (A) (A) (A) (A) (A) (A)
                 (A) (A) (A) (A) (A) (A) (A) (A) (A) (A) (A) (A)
                 (A) (A) (A) (A) (A) (A) (A) (A) (A) (A) (A) (A)
                 (A) (A) (A) (A) (A) (A) (A) (A) (A) (A) (A) (A)
                 (A) (A) (A) (A) (A) (A) (A) (A) (A) (A) (A) (A)
                 (A) (A) (A) (A) (A) (A) (A) (A) (A) (A) (A) (A)
                 (A) (A) (A) (A) (A) (A) (A) (A) (A) (A) (A) (A)
                 (A) (A) (A) (A) (A) (A) (A) (A) (A) (A) (A) (A)
                 (A) (A) (A) (A) (A) (A) (A) (A) (A) (A) (A) (A)
                 (A) (A) (A) (A) (A) (A) (A) (A) (A) (A) (A) (A)
                 (A) (A) (A) (A) (A) (A) (A) (A) (A) (A) (A) (A)
                 (A) (A) (A) (A) (A) (A) (A) (A) (A) (A) (A) (A)
                 (A) (A) (A) (A) (A) (A) (A) (A) (A) (A) (A) (A)
                 (A) (A) (A) (A) (A) (A) (A) (A) (A) (A) (A) (A)
                 (A) (A) (A) (A) (A) (A) (A) (A) (A) (A) (A) (A)
                 (A) (A) (A) (A) (A) (A) (A) (A) (A) (A) (A) (A)
                 (A) (A) (A) (A) (A) (A) (A) (A) (A) (A) (A) (A)
                 (A) (A) (A) (A) (A) (A) (A) (A) (A) (A) (A) (A)
                 (A) (A) (A) (A) (A) (A) (A) (A) (A) (A) (A) (A)
                 (A) (A) (A) (A) (A) (A) (A) (A) (A) (A) (A) (A)
                 (A) (A) (A) (A) (A) (A) (A) (A) (A) (A) (A) (A)
                 (A) (A) (A) (A) (A) (A) (A) (A) (A) (A) (A) (A)
                 (A) (A) (A) (A) (A) (A) (A) (A) (A) (A) (A) (A)
                 (A) (A) (A) (A) (A) (A) (A) (A) (A) (A) (A) (A)
                 (A) (A) (A) (A)
    48 initial guesses have been made.
 Convergence on wavefunction:    0.001000000000000
 Iteration     1 Dimension    48 NMult     0 NNew     48
 CISAX will form    10 AO SS matrices at one time.
 Defaulting to unpruned grid for atomic number  44.
 Defaulting to unpruned grid for atomic number  44.
 Defaulting to unpruned grid for atomic number  44.
 Defaulting to unpruned grid for atomic number  44.
 Defaulting to unpruned grid for atomic number  44.
 Defaulting to unpruned grid for atomic number  44.
 Defaulting to unpruned grid for atomic number  44.
 Defaulting to unpruned grid for atomic number  44.
 Defaulting to unpruned grid for atomic number  44.
 Defaulting to unpruned grid for atomic number  44.
 Defaulting to unpruned grid for atomic number  44.
 Defaulting to unpruned grid for atomic number  44.
 Defaulting to unpruned grid for atomic number  44.
 Defaulting to unpruned grid for atomic number  44.
 Defaulting to unpruned grid for atomic number  44.
 Defaulting to unpruned grid for atomic number  44.
 Defaulting to unpruned grid for atomic number  44.
 Defaulting to unpruned grid for atomic number  44.
 Defaulting to unpruned grid for atomic number  44.
 Defaulting to unpruned grid for atomic number  44.
 New state      4 was old state     11
 New state      5 was old state     29
 New state      6 was old state     20
 New state      7 was old state     14
 New state      8 was old state      5
 New state      9 was old state      4
 New state     10 was old state      7
 New state     11 was old state      6
 New state     12 was old state     15
 Iteration     2 Dimension    72 NMult    48 NNew     24
 New state      3 was old state      5
 New state      4 was old state      3
 New state      5 was old state      4
 New state      8 was old state     11
 New state     10 was old state      8
 New state     11 was old state     10
 Iteration     3 Dimension    96 NMult    72 NNew     24
 New state      5 was old state      6
 New state      6 was old state      5
 New state     11 was old state     12
 New state     12 was old state     11
 Iteration     4 Dimension   120 NMult    96 NNew     24
 Iteration     5 Dimension   144 NMult   120 NNew     24
 Iteration     6 Dimension   164 NMult   144 NNew     20
 Iteration     7 Dimension   182 NMult   164 NNew     18
 Iteration     8 Dimension   192 NMult   182 NNew     10
 Iteration     9 Dimension   194 NMult   192 NNew      2
 ***********************************************************************
 Excited states from <AA,BB:AA,BB> singles matrix:
 ***********************************************************************
 
 ExtSpn:  IState=     1 X2= 1.011 Y2= 0.011 X2-Y2-1= 6.66D-16
          S2Grnd=  0.760 Ra=  0.000 Rb=  0.002 T= -0.004 S2Ext= -0.001 S2=  0.759
 ExtSpn:  IState=     2 X2= 1.002 Y2= 0.002 X2-Y2-1= 1.11D-15
          S2Grnd=  0.760 Ra=  0.003 Rb=  0.033 T=  0.001 S2Ext=  0.037 S2=  0.797
 ExtSpn:  IState=     3 X2= 1.008 Y2= 0.008 X2-Y2-1= 1.33D-15
          S2Grnd=  0.760 Ra=  0.026 Rb=  0.059 T=  0.073 S2Ext=  0.158 S2=  0.918
 ExtSpn:  IState=     4 X2= 1.012 Y2= 0.012 X2-Y2-1= 2.00D-15
          S2Grnd=  0.760 Ra=  0.200 Rb=  0.428 T=  0.522 S2Ext=  1.150 S2=  1.911
 ExtSpn:  IState=     5 X2= 1.012 Y2= 0.012 X2-Y2-1= 1.11D-15
          S2Grnd=  0.760 Ra=  0.164 Rb=  0.220 T=  0.301 S2Ext=  0.684 S2=  1.445
 ExtSpn:  IState=     6 X2= 1.012 Y2= 0.012 X2-Y2-1= 2.22D-15
          S2Grnd=  0.760 Ra=  0.275 Rb=  0.649 T=  0.809 S2Ext=  1.733 S2=  2.494
 ExtSpn:  IState=     7 X2= 1.008 Y2= 0.008 X2-Y2-1=-7.77D-16
          S2Grnd=  0.760 Ra=  0.230 Rb=  0.085 T=  0.037 S2Ext=  0.352 S2=  1.112
 ExtSpn:  IState=     8 X2= 1.003 Y2= 0.003 X2-Y2-1=-4.44D-16
          S2Grnd=  0.760 Ra=  0.404 Rb=  0.084 T= -0.139 S2Ext=  0.350 S2=  1.110
 ExtSpn:  IState=     9 X2= 1.005 Y2= 0.005 X2-Y2-1= 0.00D+00
          S2Grnd=  0.760 Ra=  0.380 Rb=  0.304 T= -0.298 S2Ext=  0.386 S2=  1.147
 ExtSpn:  IState=    10 X2= 1.006 Y2= 0.006 X2-Y2-1=-2.33D-15
          S2Grnd=  0.760 Ra=  0.505 Rb=  0.391 T=  0.331 S2Ext=  1.227 S2=  1.988
 ExtSpn:  IState=    11 X2= 1.004 Y2= 0.004 X2-Y2-1=-1.89D-15
          S2Grnd=  0.760 Ra=  0.447 Rb=  0.426 T= -0.430 S2Ext=  0.443 S2=  1.204
 ExtSpn:  IState=    12 X2= 1.002 Y2= 0.002 X2-Y2-1=-2.22D-16
          S2Grnd=  0.760 Ra=  0.405 Rb=  0.072 T=  0.055 S2Ext=  0.533 S2=  1.293
 Ground to excited state transition densities written to RWF  633
 Ground to excited state transition electric dipole moments (Au):
       state          X           Y           Z        Dip. S.      Osc.
         1        -0.0324     -0.0928     -0.0148      0.0099      0.0001
         2        -0.0379     -0.1619     -0.0551      0.0307      0.0018
         3         0.2664     -0.0350     -0.0670      0.0767      0.0055
         4         0.2126      0.2567      0.1442      0.1319      0.0096
         5        -0.3501     -0.6273     -0.0924      0.5247      0.0390
         6         0.0605     -0.1768      0.0367      0.0363      0.0027
         7        -0.1857      0.4273      0.1943      0.2548      0.0202
         8         0.0573     -0.3258      0.0370      0.1108      0.0094
         9         0.1610     -0.6031      0.1284      0.4061      0.0349
        10         0.1665     -0.5838      0.0408      0.3702      0.0323
        11        -0.0263      0.2204     -0.0652      0.0535      0.0047
        12        -0.0112      0.1023      0.0330      0.0117      0.0010
 Ground to excited state transition velocity dipole moments (Au):
       state          X           Y           Z        Dip. S.      Osc.
         1        -0.0035      0.0018      0.0020      0.0000      0.0006
         2         0.0040      0.0052      0.0083      0.0001      0.0009
         3        -0.0210      0.0039      0.0051      0.0005      0.0030
         4        -0.0187     -0.0234     -0.0126      0.0011      0.0065
         5         0.0330      0.0621      0.0051      0.0050      0.0297
         6        -0.0072      0.0171     -0.0013      0.0003      0.0020
         7         0.0125     -0.0423     -0.0190      0.0023      0.0129
         8        -0.0013      0.0396     -0.0088      0.0016      0.0087
         9        -0.0194      0.0702     -0.0144      0.0055      0.0286
        10        -0.0165      0.0649     -0.0030      0.0045      0.0229
        11         0.0023     -0.0211     -0.0003      0.0005      0.0023
        12         0.0008     -0.0126     -0.0033      0.0002      0.0008
 Ground to excited state transition magnetic dipole moments (Au):
       state          X           Y           Z
         1        -0.0624      0.7629      0.2089
         2        -0.3381     -0.0814     -0.0086
         3        -0.2077      0.2351     -0.9762
         4        -0.0024     -0.1822      0.3593
         5         0.1131      0.0119      0.1012
         6        -0.0736      0.0263     -0.3542
         7         0.0418      0.0901     -0.4843
         8         0.0630     -0.1941      0.3481
         9        -0.0976     -0.0662     -0.3262
        10        -0.0803     -0.0846      0.2322
        11         0.1182     -0.0056      0.0999
        12         0.0469      0.2402      0.0617
 Ground to excited state transition velocity quadrupole moments (Au):
       state          XX          YY          ZZ          XY          XZ          YZ
         1         0.0091      0.0003     -0.0007     -0.0016      0.0044     -0.0027
         2         0.0784     -0.0460      0.0246     -0.0142     -0.0050     -0.0141
         3         0.0282      0.0038     -0.0125      0.0796      0.0320     -0.0275
         4        -0.0932      0.1968     -0.0922      0.0028      0.0007      0.0281
         5         0.1058     -0.1866      0.1089     -0.1275     -0.0048     -0.0194
         6        -0.0032      0.1273     -0.0396     -0.0204     -0.0002     -0.0136
         7        -0.1285      0.1925     -0.0762      0.0508     -0.0277      0.0664
         8        -0.0068      0.0408     -0.0048     -0.1147      0.0208      0.0041
         9         0.0348      0.2843     -0.0853     -0.1388      0.0119     -0.0096
        10        -0.0025      0.2259     -0.0566     -0.1569      0.0162     -0.0409
        11         0.0623     -0.2966      0.1059      0.0750      0.0113      0.0374
        12        -0.0256      0.0022     -0.0185      0.0188      0.0015      0.0070
 <0|del|b> * <b|rxdel|0> + <0|del|b> * <b|delr+rdel|0>
 Rotatory Strengths (R) in cgs (10**-40 erg-esu-cm/Gauss)
       state          XX          YY          ZZ    R(velocity)    E-M Angle
         1        28.1682     10.1229     25.3295     21.2069       54.91
         2        -2.4023     -5.5449     -7.1212     -5.0228      120.03
         3       -12.5710     -1.5885     15.8819      0.5741       89.34
         4        -0.9089    -16.1512     15.6580     -0.4674       90.94
         5         2.8673     13.4480     15.2616     10.5257       62.32
         6         2.9741      3.3479      2.7399      3.0206       77.55
         7         9.7127     34.2902     -8.7560     11.7490       75.53
         8       -29.4714    -11.5608    -19.3933    -20.1418      131.34
         9         3.3730     13.1400     -5.8017      3.5704       85.66
        10       -18.2588      2.2783    -10.2292     -8.7366      106.18
        11         0.8012      0.9278      0.1739      0.6343       83.79
        12        -8.6075     -0.2623     -7.9303     -5.6000      165.95
 1/2[<0|r|b>*<b|rxdel|0> + (<0|rxdel|b>*<b|r|0>)*]
 Rotatory Strengths (R) in cgs (10**-40 erg-esu-cm/Gauss)
       state          XX          YY          ZZ     R(length)
         1        -1.4301     50.0651      2.1928     16.9426
         2        -9.0579     -9.3190     -0.3340     -6.2370
         3        39.1212      5.8163    -46.2746     -0.4457
         4         0.3618     33.0780    -36.6418     -1.0673
         5        27.9934      5.2980      6.6077     13.2997
         6         3.1469      3.2931      9.1960      5.2120
         7         5.4845    -27.2372     66.5587     14.9353
         8        -2.5543    -44.7099     -9.1022    -18.7888
         9        11.1162    -28.2472     29.6226      4.1639
        10         9.4578    -34.9206     -6.7058    -10.7229
        11         2.1952      0.8746      4.6049      2.5582
        12         0.3726    -17.3719     -1.4381     -6.1458
  1/2[<0|del|b>*<b|r|0> + (<0|r|b>*<b|del|0>)*] (Au)
       state          X           Y           Z        Dip. S.   Osc.(frdel)
         1         0.0001     -0.0002     -0.0000      0.0001      0.0001
         2        -0.0002     -0.0008     -0.0005      0.0015      0.0010
         3        -0.0056     -0.0001     -0.0003      0.0061      0.0040
         4        -0.0040     -0.0060     -0.0018      0.0118      0.0079
         5        -0.0116     -0.0389     -0.0005      0.0510      0.0340
         6        -0.0004     -0.0030     -0.0000      0.0035      0.0023
         7        -0.0023     -0.0181     -0.0037      0.0241      0.0161
         8        -0.0001     -0.0129     -0.0003      0.0133      0.0089
         9        -0.0031     -0.0424     -0.0019      0.0473      0.0316
        10        -0.0027     -0.0379     -0.0001      0.0408      0.0272
        11        -0.0001     -0.0047      0.0000      0.0047      0.0031
        12        -0.0000     -0.0013     -0.0001      0.0014      0.0009

 Excitation energies and oscillator strengths:
 
 Excited State   1:  2.009-A      0.6119 eV 2026.22 nm  f=0.0001  <S**2>=0.759
    103B ->113B       -0.13051
    109B ->113B        0.14759
    112B ->113B        0.96601
    112B ->114B       -0.11926
 This state for optimization and/or second-order correction.
 Total Energy, E(TD-HF/TD-DFT) =  -1554.01577794    
 Copying the excited state density for this state as the 1-particle RhoCI density.
 
 Excited State   2:  2.047-A      2.3504 eV  527.50 nm  f=0.0018  <S**2>=0.797
    105B ->113B       -0.10190
    111B ->113B        0.96719
    111B ->114B       -0.10434
 
 Excited State   3:  2.162-A      2.9202 eV  424.58 nm  f=0.0055  <S**2>=0.918
    113A ->116A       -0.15314
     93B ->113B        0.11794
     94B ->113B       -0.12397
    105B ->113B        0.59837
    106B ->113B        0.43179
    107B ->113B        0.28213
    109B ->113B        0.40741
    110B ->113B        0.13556
    112B ->116B        0.22143
 
 Excited State   4:  2.940-A      2.9571 eV  419.28 nm  f=0.0096  <S**2>=1.911
    112A ->116A       -0.26323
    113A ->114A       -0.24052
    113A ->116A       -0.33819
    105B ->113B       -0.18952
    110B ->113B       -0.44162
    112B ->114B        0.45780
    112B ->116B        0.42628
 
 Excited State   5:  2.604-A      3.0362 eV  408.35 nm  f=0.0390  <S**2>=1.445
    111A ->116A       -0.16826
    112A ->116A        0.41138
    113A ->114A       -0.18815
    113A ->116A       -0.17950
    105B ->113B       -0.14844
    106B ->113B       -0.15573
    109B ->113B       -0.11916
    110B ->113B        0.61787
    112B ->114B        0.29603
    112B ->116B        0.30878
 
 Excited State   6:  3.313-A      3.0804 eV  402.49 nm  f=0.0027  <S**2>=2.494
    110A ->115A       -0.10528
    113A ->114A       -0.29505
    113A ->116A        0.36426
    105B ->113B        0.17197
    106B ->113B        0.10115
    112B ->113B        0.11933
    112B ->114B        0.59184
    112B ->116B       -0.45304
 
 Excited State   7:  2.334-A      3.2373 eV  382.99 nm  f=0.0202  <S**2>=1.112
    108A ->116A        0.11940
    111A ->116A       -0.12243
    112A ->114A        0.11200
    112A ->116A        0.67005
    113A ->114A        0.15690
    113A ->116A        0.22888
    109B ->113B        0.24198
    110B ->113B       -0.44425
    111B ->116B       -0.13942
    112B ->116B        0.20316
 
 Excited State   8:  2.333-A      3.4451 eV  359.88 nm  f=0.0094  <S**2>=1.110
    112A ->114A       -0.16303
    112A ->116A       -0.25440
    113A ->114A        0.23708
    113A ->116A        0.49820
    102B ->113B       -0.14722
    103B ->113B       -0.21872
    105B ->113B       -0.26053
    106B ->113B       -0.16395
    107B ->113B        0.17798
    109B ->113B        0.45709
    110B ->113B        0.20597
    111B ->116B        0.14663
    112B ->113B       -0.10902
    112B ->114B        0.19002
    112B ->116B        0.10353
 
 Excited State   9:  2.364-A      3.5040 eV  353.83 nm  f=0.0349  <S**2>=1.147
    111A ->116A       -0.17912
    112A ->116A       -0.10387
    113A ->114A        0.51184
    113A ->116A        0.16293
    113A ->118A        0.12699
    102B ->113B        0.13848
    103B ->113B        0.15887
    105B ->113B        0.20048
    106B ->113B        0.13527
    109B ->113B       -0.40209
    111B ->116B        0.11111
    112B ->113B        0.13389
    112B ->114B        0.34051
    112B ->115B        0.11402
    112B ->116B        0.28729
    112B ->118B       -0.18093
 
 Excited State  10:  2.992-A      3.5663 eV  347.65 nm  f=0.0323  <S**2>=1.988
    107A ->116A        0.14248
    111A ->114A        0.16686
    111A ->116A        0.49416
    112A ->114A        0.20781
    113A ->114A        0.39965
    113A ->116A       -0.16430
    110B ->113B        0.13114
    111B ->114B       -0.24795
    111B ->116B       -0.40608
    112B ->114B        0.29095
    112B ->116B       -0.14729
 
 Excited State  11:  2.411-A      3.5957 eV  344.81 nm  f=0.0047  <S**2>=1.204
    111A ->116A        0.28140
    113A ->114A       -0.28313
    113A ->116A        0.49706
    109B ->113B       -0.23962
    111B ->113B       -0.10121
    111B ->114B       -0.19204
    111B ->116B       -0.26384
    112B ->114B       -0.23237
    112B ->116B        0.45870
    112B ->118B        0.10068
 
 Excited State  12:  2.485-A      3.6520 eV  339.50 nm  f=0.0010  <S**2>=1.293
    112A ->114A        0.90439
    112A ->116A       -0.16325
    113A ->114A       -0.12795
    113A ->116A        0.11723
    113A ->118A        0.12401
    111B ->116B        0.13926
    112B ->118B       -0.17262
 SavETr:  write IOETrn=   770 NScale= 10 NData=  16 NLR=1 NState=   12 LETran=     226.

 **********************************************************************

            Population analysis using the SCF density.

 **********************************************************************

 Orbital symmetries:
 Alpha Orbitals:
       Occupied  (A) (A) (A) (A) (A) (A) (A) (A) (A) (A) (A) (A)
                 (A) (A) (A) (A) (A) (A) (A) (A) (A) (A) (A) (A)
                 (A) (A) (A) (A) (A) (A) (A) (A) (A) (A) (A) (A)
                 (A) (A) (A) (A) (A) (A) (A) (A) (A) (A) (A) (A)
[...]
 Alpha virt. eigenvalues --    1.84859   1.85148   1.85492   1.86246   1.86503
 Alpha virt. eigenvalues --    1.87517   1.88059   1.88573   1.89012   1.89443
 Alpha virt. eigenvalues --    1.90066   1.90632   1.91520   1.91781   1.92762
 Alpha virt. eigenvalues --    1.93539   1.94192   1.95129   1.96129   1.96899
 Alpha virt. eigenvalues --    1.97344   1.98316   1.99117   1.99604   2.00521
 Alpha virt. eigenvalues --    2.00781   2.01559   2.02080   2.02426   2.03088
 Alpha virt. eigenvalues --    2.04041   2.04745   2.04953   2.05630   2.06968
 Alpha virt. eigenvalues --    2.07473   2.07718   2.07961   2.09294   2.09514
 Alpha virt. eigenvalues --    2.09991   2.10595   2.11446   2.11916   2.12289
 Alpha virt. eigenvalues --    2.13824   2.15026   2.15839   2.16687   2.18261
 Alpha virt. eigenvalues --    2.19361   2.20391   2.22126   2.22172   2.23519
 Alpha virt. eigenvalues --    2.24855   2.25161   2.25445   2.26581   2.26700
 Alpha virt. eigenvalues --    2.26851   2.27802   2.27976   2.28683   2.30046
 Alpha virt. eigenvalues --    2.30757   2.31466   2.33591   2.33853   2.35428
 Alpha virt. eigenvalues --    2.39947   2.40823   2.41304   2.41888   2.42370
 Alpha virt. eigenvalues --    2.42428   2.42817   2.43078   2.43484   2.44683
 Alpha virt. eigenvalues --    2.45156   2.46082   2.46540   2.47252   2.47650
 Alpha virt. eigenvalues --    2.48460   2.49804   2.50353   2.50455   2.50816
 Alpha virt. eigenvalues --    2.51030   2.52465   2.52839   2.53014   2.53971
 Alpha virt. eigenvalues --    2.54686   2.55362   2.55779   2.56518   2.56876
 Alpha virt. eigenvalues --    2.57435   2.58067   2.58702   2.58974   2.59773
 Alpha virt. eigenvalues --    2.61305   2.62111   2.62880   2.63541   2.63938
 Alpha virt. eigenvalues --    2.64791   2.66829   2.67998   2.68389   2.69648
 Alpha virt. eigenvalues --    2.70220   2.70405   2.71248   2.71882   2.74166
 Alpha virt. eigenvalues --    2.74990   2.75324   2.78009   2.79005   2.79779
 Alpha virt. eigenvalues --    2.81169   2.82338   2.82895   2.83943   2.85597
 Alpha virt. eigenvalues --    2.87653   2.93384   2.97156   3.01282   3.05440
 Alpha virt. eigenvalues --    3.08502   3.11555   3.13200   3.16869   3.50520
 Alpha virt. eigenvalues --    3.58200   3.85819  34.88882  34.96882  35.05426
 Alpha virt. eigenvalues --   46.00426
  Beta  occ. eigenvalues --  -77.26185 -19.26913 -19.15759 -19.14284 -14.44206
  Beta  occ. eigenvalues --  -14.44171 -10.32465 -10.29771 -10.29275 -10.27002
  Beta  occ. eigenvalues --  -10.25987 -10.25899 -10.25853 -10.25670 -10.25022
  Beta  occ. eigenvalues --  -10.24951 -10.24897 -10.24561 -10.22014 -10.21975
  Beta  occ. eigenvalues --  -10.21972 -10.21901 -10.21814 -10.21679 -10.21326
  Beta  occ. eigenvalues --  -10.20959  -6.64169  -4.77793  -4.77713  -4.77525
  Beta  occ. eigenvalues --   -3.05672  -1.89241  -1.88294  -1.88058  -1.13407
  Beta  occ. eigenvalues --   -1.01167  -0.97125  -0.92343  -0.85473  -0.84169
  Beta  occ. eigenvalues --   -0.83665  -0.83585  -0.82860  -0.77882  -0.77228
  Beta  occ. eigenvalues --   -0.74393  -0.70703  -0.70587  -0.70258  -0.69698
  Beta  occ. eigenvalues --   -0.69248  -0.66341  -0.66149  -0.63446  -0.62303
  Beta  occ. eigenvalues --   -0.57760  -0.57501  -0.56262  -0.53575  -0.53170
  Beta  occ. eigenvalues --   -0.52154  -0.51210  -0.50560  -0.48462  -0.47822
  Beta  occ. eigenvalues --   -0.47290  -0.46364  -0.45984  -0.45841  -0.45494
  Beta  occ. eigenvalues --   -0.45120  -0.44627  -0.44202  -0.44054  -0.43579
  Beta  occ. eigenvalues --   -0.43321  -0.42795  -0.42060  -0.41593  -0.41374
  Beta  occ. eigenvalues --   -0.40357  -0.39884  -0.39258  -0.38966  -0.38569
  Beta  occ. eigenvalues --   -0.38409  -0.38194  -0.38002  -0.37144  -0.36663
  Beta  occ. eigenvalues --   -0.36397  -0.36281  -0.35909  -0.35192  -0.34814
  Beta  occ. eigenvalues --   -0.34497  -0.33745  -0.33656  -0.33122  -0.32967
  Beta  occ. eigenvalues --   -0.32467  -0.31797  -0.31118  -0.30325  -0.28834
  Beta  occ. eigenvalues --   -0.28239  -0.27121  -0.27071  -0.26631  -0.25483
  Beta  occ. eigenvalues --   -0.21606  -0.19160
  Beta virt. eigenvalues --   -0.06791  -0.03861  -0.01938  -0.00169   0.01089
  Beta virt. eigenvalues --    0.02048   0.02317   0.02680   0.03702   0.03867
  Beta virt. eigenvalues --    0.05940   0.06522   0.08890   0.09133   0.09583
  Beta virt. eigenvalues --    0.09616   0.10131   0.10903   0.11434   0.11724
  Beta virt. eigenvalues --    0.11889   0.12358   0.12957   0.13294   0.13519
  Beta virt. eigenvalues --    0.13891   0.14179   0.14496   0.14543   0.14821
  Beta virt. eigenvalues --    0.15604   0.15761   0.16022   0.16657   0.16885
  Beta virt. eigenvalues --    0.17133   0.18155   0.18213   0.18372   0.18540
  Beta virt. eigenvalues --    0.18742   0.19184   0.19733   0.20177   0.20740
  Beta virt. eigenvalues --    0.20837   0.21258   0.21310   0.21541   0.21851
  Beta virt. eigenvalues --    0.22219   0.22361   0.22645   0.22962   0.23324
  Beta virt. eigenvalues --    0.23920   0.24161   0.24348   0.24833   0.25854
  Beta virt. eigenvalues --    0.26099   0.26584   0.27462   0.28320   0.28629
  Beta virt. eigenvalues --    0.29101   0.29883   0.30989   0.31905   0.32001
  Beta virt. eigenvalues --    0.32583   0.32778   0.33785   0.34986   0.35845
  Beta virt. eigenvalues --    0.35952   0.37307   0.38592   0.40477   0.41659
  Beta virt. eigenvalues --    0.42192   0.42773   0.43195   0.43999   0.44764
  Beta virt. eigenvalues --    0.44970   0.45634   0.46999   0.47280   0.47846
  Beta virt. eigenvalues --    0.48601   0.49225   0.49669   0.50291   0.50477
  Beta virt. eigenvalues --    0.50993   0.51430   0.52737   0.53333   0.53774
  Beta virt. eigenvalues --    0.54342   0.54530   0.55302   0.55706   0.56104
  Beta virt. eigenvalues --    0.56632   0.57666   0.58532   0.58874   0.59108
  Beta virt. eigenvalues --    0.60150   0.60309   0.60372   0.61060   0.61506
  Beta virt. eigenvalues --    0.61857   0.62425   0.63033   0.63365   0.63954
  Beta virt. eigenvalues --    0.64295   0.64363   0.64701   0.65222   0.65247
  Beta virt. eigenvalues --    0.65693   0.66054   0.66256   0.66494   0.66677
  Beta virt. eigenvalues --    0.66956   0.67500   0.67597   0.67815   0.68266
  Beta virt. eigenvalues --    0.68929   0.68999   0.69283   0.69672   0.69788
  Beta virt. eigenvalues --    0.70388   0.70820   0.71551   0.71748   0.72261
  Beta virt. eigenvalues --    0.72809   0.73032   0.73391   0.73741   0.74031
  Beta virt. eigenvalues --    0.74498   0.74723   0.75557   0.75696   0.75838
  Beta virt. eigenvalues --    0.76194   0.76572   0.77447   0.77871   0.78019
  Beta virt. eigenvalues --    0.78922   0.79248   0.79581   0.80184   0.80808
  Beta virt. eigenvalues --    0.81264   0.82172   0.82538   0.82900   0.83656
  Beta virt. eigenvalues --    0.84702   0.85418   0.86053   0.86596   0.87290
  Beta virt. eigenvalues --    0.87949   0.88177   0.88914   0.89769   0.90178
  Beta virt. eigenvalues --    0.90586   0.91005   0.91638   0.92200   0.92520
  Beta virt. eigenvalues --    0.93229   0.94348   0.95181   0.95799   0.96425
  Beta virt. eigenvalues --    0.97267   0.97771   0.98448   0.99365   0.99479
  Beta virt. eigenvalues --    1.00504   1.00571   1.01393   1.02727   1.03375
  Beta virt. eigenvalues --    1.04141   1.05282   1.05826   1.06604   1.06851
  Beta virt. eigenvalues --    1.08939   1.09559   1.10652   1.11829   1.12629
  Beta virt. eigenvalues --    1.14074   1.14689   1.15190   1.15318   1.16980
  Beta virt. eigenvalues --    1.17625   1.19135   1.19754   1.20701   1.21600
  Beta virt. eigenvalues --    1.22413   1.23675   1.25381   1.25934   1.27046
  Beta virt. eigenvalues --    1.27280   1.28323   1.29171   1.29372   1.30416
  Beta virt. eigenvalues --    1.30872   1.31663   1.33153   1.33576   1.34568
  Beta virt. eigenvalues --    1.34700   1.35830   1.36170   1.36911   1.38106
  Beta virt. eigenvalues --    1.38267   1.39182   1.40041   1.40790   1.41200
  Beta virt. eigenvalues --    1.41405   1.43058   1.43328   1.43385   1.43774
  Beta virt. eigenvalues --    1.44237   1.44603   1.45060   1.45720   1.46048
  Beta virt. eigenvalues --    1.46752   1.47470   1.47783   1.48692   1.48950
  Beta virt. eigenvalues --    1.49239   1.49966   1.50874   1.51422   1.52019
  Beta virt. eigenvalues --    1.53018   1.53042   1.53738   1.54125   1.54465
  Beta virt. eigenvalues --    1.55111   1.56028   1.57293   1.58265   1.58425
  Beta virt. eigenvalues --    1.59519   1.59858   1.61363   1.62126   1.62484
  Beta virt. eigenvalues --    1.62777   1.63034   1.63928   1.64447   1.64763
  Beta virt. eigenvalues --    1.65470   1.65995   1.66638   1.67117   1.67631
  Beta virt. eigenvalues --    1.67720   1.68210   1.69022   1.69284   1.69491
  Beta virt. eigenvalues --    1.70054   1.70551   1.71182   1.71565   1.71750
  Beta virt. eigenvalues --    1.72382   1.72657   1.73019   1.73359   1.73918
  Beta virt. eigenvalues --    1.74290   1.75371   1.75671   1.76123   1.76326
  Beta virt. eigenvalues --    1.76622   1.77189   1.77311   1.77500   1.78018
  Beta virt. eigenvalues --    1.78730   1.79139   1.79607   1.80236   1.80518
  Beta virt. eigenvalues --    1.81121   1.81929   1.82280   1.82523   1.83550
  Beta virt. eigenvalues --    1.84338   1.84929   1.85193   1.85534   1.86310
  Beta virt. eigenvalues --    1.86523   1.87534   1.88094   1.88607   1.89037
  Beta virt. eigenvalues --    1.89460   1.90081   1.90659   1.91530   1.91797
  Beta virt. eigenvalues --    1.92781   1.93570   1.94205   1.95160   1.96206
  Beta virt. eigenvalues --    1.96915   1.97370   1.98375   1.99130   1.99623
  Beta virt. eigenvalues --    2.00558   2.00789   2.01599   2.02142   2.02443
  Beta virt. eigenvalues --    2.03141   2.04092   2.04786   2.04964   2.05662
  Beta virt. eigenvalues --    2.07074   2.07489   2.07733   2.08003   2.09329
  Beta virt. eigenvalues --    2.09573   2.10008   2.10620   2.11482   2.11946
  Beta virt. eigenvalues --    2.12321   2.13867   2.15052   2.15853   2.16708
  Beta virt. eigenvalues --    2.18312   2.19380   2.20436   2.22163   2.22222
  Beta virt. eigenvalues --    2.23626   2.24876   2.25253   2.25526   2.26598
  Beta virt. eigenvalues --    2.26713   2.26915   2.27829   2.28023   2.28718
  Beta virt. eigenvalues --    2.30112   2.30774   2.31731   2.33609   2.33856
  Beta virt. eigenvalues --    2.36148   2.40014   2.40836   2.41319   2.41929
  Beta virt. eigenvalues --    2.42375   2.42447   2.42865   2.43089   2.43548
  Beta virt. eigenvalues --    2.44714   2.45191   2.46112   2.46568   2.47266
  Beta virt. eigenvalues --    2.47681   2.48469   2.49840   2.50374   2.50506
  Beta virt. eigenvalues --    2.50902   2.51081   2.52495   2.52867   2.53095
  Beta virt. eigenvalues --    2.54018   2.54699   2.55383   2.55833   2.56536
  Beta virt. eigenvalues --    2.56937   2.57453   2.58091   2.58721   2.59058
  Beta virt. eigenvalues --    2.59835   2.61391   2.62149   2.63006   2.63584
  Beta virt. eigenvalues --    2.64183   2.65123   2.66875   2.68443   2.69086
  Beta virt. eigenvalues --    2.69884   2.70736   2.71388   2.72112   2.73600
  Beta virt. eigenvalues --    2.74623   2.75397   2.75870   2.79020   2.79664
  Beta virt. eigenvalues --    2.80763   2.82384   2.82878   2.83554   2.85626
  Beta virt. eigenvalues --    2.86582   2.88888   2.93657   2.97948   3.01344
  Beta virt. eigenvalues --    3.05491   3.08928   3.11534   3.13345   3.18034
  Beta virt. eigenvalues --    3.50518   3.58169   3.85818  34.89293  34.97364
  Beta virt. eigenvalues --   35.05841  46.00804
          Condensed to atoms (all electrons):
          Atomic-Atomic Spin Densities.
 Mulliken charges and spin densities:
               1          2
     1  N   -0.319043  -0.008207
     2  C    0.042505   0.000862
     3  C    0.070408   0.000149
     4  C   -0.048103   0.000154
     5  C    0.084760  -0.000900
     6  C   -0.043861   0.000004
     7  C    0.123357  -0.000115
     8  H    0.036825   0.000128
     9  H    0.048947   0.000054
    10  H    0.037092  -0.000060
    11  C   -0.076893   0.000635
    12  N   -0.392475   0.023066
    13  H    0.076385  -0.000620
    14  H    0.120864   0.000198
    15  H    0.140006  -0.000150
    16  P    0.265419   0.014980
    17  H    0.098928  -0.000317
    18  Ru  -0.027050   0.281675
    19  C   -0.023749  -0.000167
    20  C   -0.467720   0.005161
    21  C   -0.001480  -0.000981
    22  C   -0.457966  -0.000686
    23  C   -0.007588   0.005804
    24  C   -0.021294  -0.000333
    25  C   -0.001567   0.001368
    26  C   -0.023433  -0.000204
    27  C   -0.000473  -0.000112
    28  C   -0.019191   0.000192
    29  C    0.013765  -0.022066
    30  O   -0.167727  -0.009511
    31  H    0.118028   0.000517
    32  C   -0.076645   0.001120
    33  H    0.103723   0.000576
    34  H    0.079389   0.001106
    35  C   -0.114569   0.014993
    36  H    0.058147   0.005957
    37  O   -0.514679   0.689242
    38  O   -0.476342  -0.005687
    39  H    0.108673  -0.000440
    40  H    0.063333  -0.000273
    41  H    0.061623   0.000129
    42  H    0.062461   0.000165
    43  H    0.064411  -0.000061
    44  H    0.062550  -0.000087
    45  H    0.042345   0.000474
    46  H    0.063127   0.000013
    47  H    0.089285  -0.000465
    48  H    0.053995   0.000572
    49  H    0.082600  -0.000197
    50  H    0.068397  -0.000016
    51  H    0.050748   0.000539
    52  H    0.047504  -0.000089
    53  H    0.060132  -0.000080
    54  H    0.066900   0.000005
    55  H    0.051379  -0.000033
    56  H    0.061126  -0.000023
    57  H    0.050309   0.000042
    58  H    0.081519   0.000464
    59  H    0.052380   0.000011
    60  H    0.054077   0.000006
    61  H    0.098115   0.000112
    62  H    0.068454   0.000010
    63  H    0.197858   0.001397
 Sum of Mulliken charges =  -0.00000   1.00000
 Mulliken charges and spin densities with hydrogens summed into heavy atoms:
               1          2
     1  N   -0.319043  -0.008207
     2  C    0.042505   0.000862
     3  C    0.070408   0.000149
     4  C   -0.011277   0.000282
     5  C    0.133707  -0.000845
     6  C   -0.006768  -0.000057
     7  C    0.320606  -0.000536
    11  C    0.162041   0.000168
    12  N   -0.392475   0.023066
    16  P    0.265419   0.014980
    18  Ru  -0.027050   0.281675
    19  C    0.198001   0.000926
    20  C   -0.467720   0.005161
    21  C    0.136056   0.006081
    22  C   -0.457966  -0.000686
    23  C    0.187169   0.005826
    24  C    0.183698   0.000027
    25  C    0.156817   0.001738
    26  C    0.197213  -0.000076
    27  C    0.178932  -0.000163
    28  C    0.165016   0.000709
    29  C    0.013765  -0.022066
    30  O   -0.167727  -0.009511
    32  C    0.112778   0.001137
    35  C    0.119060   0.014409
    37  O   -0.514679   0.689242
    38  O   -0.278483  -0.004290
 Electronic spatial extent (au):  <R**2>=           9609.6166
 Charge=             -0.0000 electrons
 Dipole moment (field-independent basis, Debye):
    X=             -0.0265    Y=             12.3563    Z=              1.4654  Tot=             12.4429
 Quadrupole moment (field-independent basis, Debye-Ang):
   XX=           -141.6329   YY=           -182.7633   ZZ=           -197.4625
   XY=             -3.3787   XZ=             -6.1606   YZ=             -0.4535
 Traceless Quadrupole moment (field-independent basis, Debye-Ang):
   XX=             32.3200   YY=             -8.8104   ZZ=            -23.5096
   XY=             -3.3787   XZ=             -6.1606   YZ=             -0.4535
 Octapole moment (field-independent basis, Debye-Ang**2):
  XXX=            -65.7820  YYY=            117.6686  ZZZ=             -3.8296  XYY=            -31.3141
  XXY=              0.1245  XXZ=             10.1712  XZZ=              6.2253  YZZ=             -4.2335
  YYZ=            -15.5466  XYZ=             -0.2493
 Hexadecapole moment (field-independent basis, Debye-Ang**3):
 XXXX=          -6627.2380 YYYY=          -3296.8477 ZZZZ=          -2390.8449 XXXY=            -29.3282
 XXXZ=            -37.2564 YYYX=            -88.0335 YYYZ=           -111.7730 ZZZX=              5.1252
 ZZZY=             48.1475 XXYY=          -1629.8207 XXZZ=          -1495.1045 YYZZ=           -982.5689
 XXYZ=             26.4240 YYXZ=            -31.7297 ZZXY=             27.8472
 N-N= 3.472615548294D+03 E-N=-1.055917536710D+04  KE= 1.484599358487D+03
 1\1\GINC-NODE275\SP\UPBE1PBE TD-FC\GenECP\C20H36N2O3P1Ru1(2)\JS1212\14
 -Feb-2020\0\\# genecp pbe1pbe EmpiricalDispersion=GD3BJ scrf=(SMD,solv
 ent=water) td=nstates=12 geom=allcheck\\Title Card Required\\0,2\N,0,-
 0.6812204424,1.5714446512,-0.1151843257\C,0,-1.8980458741,2.0724426765
 ,0.1573060882\C,0,0.2542020054,2.3156695708,-0.7337312176\C,0,-2.21300
 43076,3.3950242073,-0.1230549877\C,0,-1.2332474931,4.2056438045,-0.694
 6187336\C,0,0.006668733,3.6598667482,-1.0102382167\C,0,-2.8301078423,1
 .0856477455,0.7933335514\H,0,-3.2079054167,3.7803773527,0.1024096842\H
 ,0,-1.4448443394,5.2532600543,-0.9153995777\H,0,0.7774860232,4.2618902
 191,-1.4927635109\C,0,1.501758813,1.6052955983,-1.1639386093\N,0,-2.70
 6045288,-0.2521557849,0.1762033279\H,0,-3.8689280034,1.4551168434,0.76
 66989449\H,0,-2.5472935954,0.9787115358,1.8533510924\H,0,1.2840480949,
 1.201616587,-2.168352552\P,0,1.7944441936,0.0527364269,-0.1721290193\H
 ,0,2.3653966509,2.2830717777,-1.217169729\Ru,0,-0.4285118534,-0.490811
 8857,0.1038667192\C,0,-3.2642439486,-0.2585208747,-1.1973453487\C,0,2.
 9266974422,-1.0089251258,-1.2696771276\C,0,-3.3749291047,-1.2384439918
 ,1.0572228358\C,0,2.743157469,0.668240808,1.3608104215\C,0,2.053553882
 9,-1.7477273537,-2.285678225\C,0,3.6198991299,-2.0622934651,-0.4034869
 324\C,0,3.9570974054,-0.1703918309,-2.0296464396\C,0,1.9164047739,1.80
 64153941,1.9726462018\C,0,4.1298107826,1.2214452128,1.0280399279\C,0,2
 .8810056304,-0.4494161107,2.3992966542\C,0,-0.414719761,-0.6495732899,
 1.9331479238\O,0,-0.4706708597,-0.7760587178,3.0904752116\H,0,-2.67086
 02547,0.4567878045,-1.7807276084\C,0,-4.7565768016,0.0046219834,-1.317
 5246252\H,0,-3.0092357226,-1.2336456288,-1.6291553481\H,0,-2.886473526
 2,-1.1609630485,2.0389663581\C,0,-3.2865354465,-2.6640354791,0.5584360
 388\H,0,-4.4300183455,-0.9361617197,1.2030369581\O,0,-0.2993296111,-2.
 3803818146,-0.1769645539\O,0,-0.5423012807,-0.3192543099,-1.9559310002
 \H,0,-2.23698474,-2.9325402089,0.3488492945\H,0,-3.8856146403,-2.82830
 89635,-0.3494915532\H,0,-3.6753657369,-3.3373977675,1.3366789071\H,0,-
 5.0268999541,-0.021202989,-2.3838131823\H,0,-5.0545091359,0.9944057426
 ,-0.9380976484\H,0,-5.3696833291,-0.7542842293,-0.8082492959\H,0,2.712
 7734609,-2.3866318247,-2.8975534554\H,0,1.5132613808,-1.0552352497,-2.
 9438370244\H,0,1.306153638,-2.3746252001,-1.7759479578\H,0,4.117445954
 6,-2.7873471395,-1.0680507773\H,0,2.8923301632,-2.6179290416,0.2075630
 934\H,0,4.3917605552,-1.6374646373,0.2527207765\H,0,4.575745716,-0.849
 4975934,-2.6398200338\H,0,4.6342310544,0.393858402,-1.3767226495\H,0,3
 .4750432267,0.5333701786,-2.723973076\H,0,4.8263021213,0.439019878,0.6
 986421525\H,0,4.5563081934,1.6752551004,1.9382129048\H,0,4.0977296834,
 2.0069269374,0.2576756529\H,0,3.5738199353,-1.2357379064,2.0782412029\
 H,0,1.9201669215,-0.9195259857,2.6382118404\H,0,3.2805527953,-0.015938
 1037,3.3312964676\H,0,2.3929828053,2.1161209505,2.9169208772\H,0,0.886
 7984703,1.5003296859,2.1990864018\H,0,1.8785126575,2.6903796895,1.3189
 375624\H,0,-0.5545931083,-1.2569862946,-2.1962107313\\Version=ES64L-G1
 6RevA.03\State=2-A\HF=-1554.0382648\S2=0.760408\S2-1=0.\S2A=0.750062\R
 MSD=6.895e-09\PG=C01 [X(C20H36N2O3P1Ru1)]\\@


 THE NUMBERS ARE MEANINGLESS, BUT THE TRENDS ARE IMPORTANT.
     -- LARRY BURGGRAF
 Job cpu time:       1 days  4 hours 33 minutes 45.7 seconds.
 Elapsed time:       0 days  1 hours 25 minutes 53.8 seconds.
 File lengths (MBytes):  RWF=   3150 Int=      0 D2E=      0 Chk=    194 Scr=      1
 Normal termination of Gaussian 16 at Fri Feb 14 12:28:41 2020.
