 Entering Gaussian System, Link 0=g16
 Initial command:
 /cluster/chemistry/gaussian/g16/l1.exe "/scratch/js1212.573988/scratch/Gau-30548.inp" -scrdir="/scratch/js1212.573988/scratch/"
 Entering Link 1 = /cluster/chemistry/gaussian/g16/l1.exe PID=     30549.
  
 Copyright (c) 1988,1990,1992,1993,1995,1998,2003,2009,2016,
            Gaussian, Inc.  All Rights Reserved.
  
 This is part of the Gaussian(R) 16 program.  It is based on
 the Gaussian(R) 09 system (copyright 2009, Gaussian, Inc.),
 the Gaussian(R) 03 system (copyright 2003, Gaussian, Inc.),
 the Gaussian(R) 98 system (copyright 1998, Gaussian, Inc.),
 the Gaussian(R) 94 system (copyright 1995, Gaussian, Inc.),
 the Gaussian 92(TM) system (copyright 1992, Gaussian, Inc.),
 the Gaussian 90(TM) system (copyright 1990, Gaussian, Inc.),
 the Gaussian 88(TM) system (copyright 1988, Gaussian, Inc.),
 the Gaussian 86(TM) system (copyright 1986, Carnegie Mellon
 University), and the Gaussian 82(TM) system (copyright 1983,
 Carnegie Mellon University). Gaussian is a federally registered
 trademark of Gaussian, Inc.
  
 This software contains proprietary and confidential information,
 including trade secrets, belonging to Gaussian, Inc.
  
 This software is provided under written license and may be
 used, copied, transmitted, or stored only in accord with that
 written license.
  
 The following legend is applicable only to US Government
 contracts under FAR:
  
                    RESTRICTED RIGHTS LEGEND
  
 Use, reproduction and disclosure by the US Government is
 subject to restrictions as set forth in subparagraphs (a)
 and (c) of the Commercial Computer Software - Restricted
 Rights clause in FAR 52.227-19.
  
 Gaussian, Inc.
 340 Quinnipiac St., Bldg. 40, Wallingford CT 06492
  
  
 ---------------------------------------------------------------
 Warning -- This program may not be used in any manner that
 competes with the business of Gaussian, Inc. or will provide
 assistance to any competitor of Gaussian, Inc.  The licensee
 of this program is prohibited from giving any competitor of
 Gaussian, Inc. access to this program.  By using this program,
 the user acknowledges that Gaussian, Inc. is engaged in the
 business of creating and licensing software in the field of
 computational chemistry and represents and warrants to the
 licensee that it is not a competitor of Gaussian, Inc. and that
 it will not use this program in any manner prohibited above.
 ---------------------------------------------------------------
  

 Cite this work as:
 Gaussian 16, Revision A.03,
 M. J. Frisch, G. W. Trucks, H. B. Schlegel, G. E. Scuseria, 
 M. A. Robb, J. R. Cheeseman, G. Scalmani, V. Barone, 
 G. A. Petersson, H. Nakatsuji, X. Li, M. Caricato, A. V. Marenich, 
 J. Bloino, B. G. Janesko, R. Gomperts, B. Mennucci, H. P. Hratchian, 
 J. V. Ortiz, A. F. Izmaylov, J. L. Sonnenberg, D. Williams-Young, 
 F. Ding, F. Lipparini, F. Egidi, J. Goings, B. Peng, A. Petrone, 
 T. Henderson, D. Ranasinghe, V. G. Zakrzewski, J. Gao, N. Rega, 
 G. Zheng, W. Liang, M. Hada, M. Ehara, K. Toyota, R. Fukuda, 
 J. Hasegawa, M. Ishida, T. Nakajima, Y. Honda, O. Kitao, H. Nakai, 
 T. Vreven, K. Throssell, J. A. Montgomery, Jr., J. E. Peralta, 
 F. Ogliaro, M. J. Bearpark, J. J. Heyd, E. N. Brothers, K. N. Kudin, 
 V. N. Staroverov, T. A. Keith, R. Kobayashi, J. Normand, 
 K. Raghavachari, A. P. Rendell, J. C. Burant, S. S. Iyengar, 
 J. Tomasi, M. Cossi, J. M. Millam, M. Klene, C. Adamo, R. Cammi, 
 J. W. Ochterski, R. L. Martin, K. Morokuma, O. Farkas, 
 J. B. Foresman, and D. J. Fox, Gaussian, Inc., Wallingford CT, 2016.
 
 ******************************************
 Gaussian 16:  ES64L-G16RevA.03 25-Dec-2016
                13-Feb-2020 
 ******************************************
 %rwf=/scratch/js1212.573988/3-HTrans-GPOF-D-0.rwf
 %nosave
 %nprocshared=16
 Will use up to   16 processors via shared memory.
 %mem=3000MB
 %chk=/scratch/js1212.573988/3-HTrans-GPOF-D-0.chk
 ---------------------------------------------------
 # opt freq genecp pbe1pbe EmpiricalDispersion=GD3BJ
 ---------------------------------------------------
 1/18=20,19=15,26=3,38=1/1,3;
 2/9=110,12=2,17=6,18=5,40=1/2;
 3/5=7,11=2,16=1,17=8,25=1,30=1,71=1,74=-13,124=41/1,2,3;
 4//1;
 5/5=2,38=5/2;
 6/7=2,8=2,9=2,10=2,28=1/1;
 7//1,2,3,16;
 1/18=20,19=15,26=3/3(2);
 2/9=110/2;
 99//99;
 2/9=110/2;
 3/5=7,6=1,11=2,16=1,17=8,25=1,30=1,71=1,74=-13,82=7,124=41/1,2,3;
 4/5=5,16=3,69=1/1;
 5/5=2,38=5/2;
 7//1,2,3,16;
 1/18=20,19=15,26=3/3(-5);
 2/9=110/2;
 6/7=2,8=2,9=2,10=2,19=2,28=1/1;
 99/9=1/99;
 -------------------
 Title Card Required
 -------------------
 Symbolic Z-matrix:
 Charge =  0 Multiplicity = 2
 N                    -0.72661   1.31314  -0.11194 
 C                    -1.87301   1.90309   0.26966 
 C                     0.21672   2.03177  -0.74668 
 C                    -2.10489   3.25797   0.06476 
 C                    -1.12407   4.0214   -0.56041 
 C                     0.04344   3.39898  -0.97681 
 C                    -2.88967   1.00903   0.91798 
 H                    -3.05001   3.6969    0.38624 
 H                    -1.27659   5.08815  -0.73478 
 H                     0.82838   3.95677  -1.48881 
 C                     1.4383    1.31879  -1.23165 
 N                    -3.01673  -0.23508   0.18346 
 H                    -3.84556   1.55763   1.03123 
 H                    -2.53952   0.76121   1.93464 
 H                     1.12282   0.7608   -2.13407 
 P                     1.97975  -0.05129  -0.10423 
 H                     2.23113   2.03486  -1.48944 
 Ru                   -0.4843   -0.87981   0.08142 
 C                    -3.51334  -0.05162  -1.18386 
 C                     3.20008  -1.0069   -1.20561 
 C                    -3.73825  -1.23806   0.96678 
 C                     2.87611   0.81539   1.33178 
 C                     2.33982  -1.91151  -2.09411 
 C                     4.08448  -1.89943  -0.33454 
 C                     4.06741  -0.11103  -2.09066 
 C                     1.90582   1.85907   1.89577 
 C                     4.18011   1.51099   0.94937 
 C                     3.12408  -0.22646   2.42807 
 C                    -0.47573  -1.01415   1.92181 
 O                    -0.47241  -1.12667   3.08325 
 H                    -2.81549   0.62753  -1.69329 
 C                    -4.94878   0.44012  -1.31084 
 H                    -3.38079  -1.00807  -1.70497 
 H                    -3.20468  -1.32429   1.92696 
 C                    -3.78859  -2.59819   0.29829 
 H                    -4.76439  -0.88862   1.20853 
 O                    -0.37861  -2.83     -0.23093 
 O                    -0.60658  -0.75649  -1.96094 
 H                    -2.77951  -2.90702  -0.01831 
 H                    -4.4505   -2.60768  -0.58048 
 H                    -4.17947  -3.34018   1.01048 
 H                    -5.20693   0.54271  -2.37569 
 H                    -5.10047   1.42646  -0.84424 
 H                    -5.67215  -0.25885  -0.86284 
 H                     3.00488  -2.48592  -2.76119 
 H                     1.6314   -1.33647  -2.70658 
 H                     1.74034  -2.60875  -1.49063 
 H                     4.64924  -2.58446  -0.98852 
 H                     3.48375  -2.51629   0.35122 
 H                     4.81711  -1.32975   0.25479 
 H                     4.74068  -0.7472   -2.69053 
 H                     4.6944    0.5848   -1.51728 
 H                     3.46052   0.47027  -2.79987 
 H                     4.95689   0.80012   0.63529 
 H                     4.57252   2.06037   1.82284 
 H                     4.0354    2.2439    0.14042 
 H                     3.84765  -0.99415   2.1267 
 H                     2.19006  -0.72928   2.71816 
 H                     3.52738   0.27792   3.32247 
 H                     2.32243   2.25925   2.83514 
 H                     0.92158   1.42398   2.1231 
 H                     1.76      2.7075    1.21182 
 H                    -0.6122   -1.68162  -2.2439 
 

 GradGradGradGradGradGradGradGradGradGradGradGradGradGradGradGradGradGrad
 Berny optimization.
 Initialization pass.
                           ----------------------------
                           !    Initial Parameters    !
                           ! (Angstroms and Degrees)  !
 --------------------------                            --------------------------
 ! Name  Definition              Value          Derivative Info.                !
 --------------------------------------------------------------------------------
 ! R1    R(1,2)                  1.3446         estimate D2E/DX2                !
 ! R2    R(1,3)                  1.3451         estimate D2E/DX2                !
 ! R3    R(1,18)                 2.2148         estimate D2E/DX2                !
 ! R4    R(2,4)                  1.3898         estimate D2E/DX2                !
 ! R5    R(2,7)                  1.5011         estimate D2E/DX2                !
 ! R6    R(3,6)                  1.3972         estimate D2E/DX2                !
 ! R7    R(3,11)                 1.4953         estimate D2E/DX2                !
 ! R8    R(4,5)                  1.3913         estimate D2E/DX2                !
 ! R9    R(4,8)                  1.0905         estimate D2E/DX2                !
 ! R10   R(5,6)                  1.387          estimate D2E/DX2                !
 ! R11   R(5,9)                  1.0916         estimate D2E/DX2                !
 ! R12   R(6,10)                 1.0906         estimate D2E/DX2                !
 ! R13   R(7,12)                 1.4503         estimate D2E/DX2                !
 ! R14   R(7,13)                 1.1079         estimate D2E/DX2                !
 ! R15   R(7,14)                 1.1035         estimate D2E/DX2                !
 ! R16   R(11,15)                1.1069         estimate D2E/DX2                !
 ! R17   R(11,16)                1.8551         estimate D2E/DX2                !
 ! R18   R(11,17)                1.099          estimate D2E/DX2                !
 ! R19   R(12,19)                1.4662         estimate D2E/DX2                !
 ! R20   R(12,21)                1.4629         estimate D2E/DX2                !
 ! R21   R(16,18)                2.6062         estimate D2E/DX2                !
 ! R22   R(16,20)                1.9014         estimate D2E/DX2                !
 ! R23   R(16,22)                1.9018         estimate D2E/DX2                !
 ! R24   R(18,29)                1.8453         estimate D2E/DX2                !
 ! R25   R(18,37)                1.9779         estimate D2E/DX2                !
 ! R26   R(18,38)                2.0497         estimate D2E/DX2                !
 ! R27   R(19,31)                1.099          estimate D2E/DX2                !
 ! R28   R(19,32)                1.5226         estimate D2E/DX2                !
 ! R29   R(19,33)                1.0972         estimate D2E/DX2                !
 ! R30   R(20,23)                1.5323         estimate D2E/DX2                !
 ! R31   R(20,24)                1.5289         estimate D2E/DX2                !
 ! R32   R(20,25)                1.5291         estimate D2E/DX2                !
 ! R33   R(21,34)                1.1019         estimate D2E/DX2                !
 ! R34   R(21,35)                1.5164         estimate D2E/DX2                !
 ! R35   R(21,36)                1.1106         estimate D2E/DX2                !
 ! R36   R(22,26)                1.5326         estimate D2E/DX2                !
 ! R37   R(22,27)                1.5266         estimate D2E/DX2                !
 ! R38   R(22,28)                1.5326         estimate D2E/DX2                !
 ! R39   R(23,45)                1.1033         estimate D2E/DX2                !
 ! R40   R(23,46)                1.0989         estimate D2E/DX2                !
 ! R41   R(23,47)                1.0999         estimate D2E/DX2                !
 ! R42   R(24,48)                1.1027         estimate D2E/DX2                !
 ! R43   R(24,49)                1.1008         estimate D2E/DX2                !
 ! R44   R(24,50)                1.0994         estimate D2E/DX2                !
 ! R45   R(25,51)                1.1036         estimate D2E/DX2                !
 ! R46   R(25,52)                1.0982         estimate D2E/DX2                !
 ! R47   R(25,53)                1.0996         estimate D2E/DX2                !
 ! R48   R(26,60)                1.1028         estimate D2E/DX2                !
 ! R49   R(26,61)                1.0999         estimate D2E/DX2                !
 ! R50   R(26,62)                1.0995         estimate D2E/DX2                !
 ! R51   R(27,54)                1.0988         estimate D2E/DX2                !
 ! R52   R(27,55)                1.104          estimate D2E/DX2                !
 ! R53   R(27,56)                1.1011         estimate D2E/DX2                !
 ! R54   R(28,57)                1.0971         estimate D2E/DX2                !
 ! R55   R(28,58)                1.0997         estimate D2E/DX2                !
 ! R56   R(28,59)                1.1032         estimate D2E/DX2                !
 ! R57   R(29,30)                1.1669         estimate D2E/DX2                !
 ! R58   R(32,42)                1.1005         estimate D2E/DX2                !
 ! R59   R(32,43)                1.1016         estimate D2E/DX2                !
 ! R60   R(32,44)                1.1011         estimate D2E/DX2                !
 ! R61   R(35,39)                1.1018         estimate D2E/DX2                !
 ! R62   R(35,40)                1.1002         estimate D2E/DX2                !
 ! R63   R(35,41)                1.1003         estimate D2E/DX2                !
 ! R64   R(38,63)                0.9675         estimate D2E/DX2                !
 ! A1    A(2,1,3)              119.8327         estimate D2E/DX2                !
 ! A2    A(2,1,18)             120.1951         estimate D2E/DX2                !
 ! A3    A(3,1,18)             119.5697         estimate D2E/DX2                !
 ! A4    A(1,2,4)              121.8813         estimate D2E/DX2                !
 ! A5    A(1,2,7)              116.0212         estimate D2E/DX2                !
 ! A6    A(4,2,7)              122.0954         estimate D2E/DX2                !
 ! A7    A(1,3,6)              120.9            estimate D2E/DX2                !
 ! A8    A(1,3,11)             118.1164         estimate D2E/DX2                !
 ! A9    A(6,3,11)             120.9628         estimate D2E/DX2                !
 ! A10   A(2,4,5)              118.9191         estimate D2E/DX2                !
 ! A11   A(2,4,8)              119.5726         estimate D2E/DX2                !
 ! A12   A(5,4,8)              121.5055         estimate D2E/DX2                !
 ! A13   A(4,5,6)              118.8201         estimate D2E/DX2                !
 ! A14   A(4,5,9)              120.6307         estimate D2E/DX2                !
 ! A15   A(6,5,9)              120.5421         estimate D2E/DX2                !
 ! A16   A(3,6,5)              119.6066         estimate D2E/DX2                !
 ! A17   A(3,6,10)             119.2439         estimate D2E/DX2                !
 ! A18   A(5,6,10)             121.1479         estimate D2E/DX2                !
 ! A19   A(2,7,12)             110.5802         estimate D2E/DX2                !
 ! A20   A(2,7,13)             109.4854         estimate D2E/DX2                !
 ! A21   A(2,7,14)             108.4681         estimate D2E/DX2                !
 ! A22   A(12,7,13)            113.6365         estimate D2E/DX2                !
 ! A23   A(12,7,14)            107.5634         estimate D2E/DX2                !
 ! A24   A(13,7,14)            106.906          estimate D2E/DX2                !
 ! A25   A(3,11,15)            105.78           estimate D2E/DX2                !
 ! A26   A(3,11,16)            113.1723         estimate D2E/DX2                !
 ! A27   A(3,11,17)            110.7792         estimate D2E/DX2                !
 ! A28   A(15,11,16)           101.9088         estimate D2E/DX2                !
 ! A29   A(15,11,17)           110.0494         estimate D2E/DX2                !
 ! A30   A(16,11,17)           114.4068         estimate D2E/DX2                !
 ! A31   A(7,12,19)            113.2425         estimate D2E/DX2                !
 ! A32   A(7,12,21)            111.109          estimate D2E/DX2                !
 ! A33   A(19,12,21)           114.7124         estimate D2E/DX2                !
 ! A34   A(11,16,18)            90.1219         estimate D2E/DX2                !
 ! A35   A(11,16,20)           101.9157         estimate D2E/DX2                !
 ! A36   A(11,16,22)           105.0639         estimate D2E/DX2                !
 ! A37   A(18,16,20)           119.2273         estimate D2E/DX2                !
 ! A38   A(18,16,22)           122.4595         estimate D2E/DX2                !
 ! A39   A(20,16,22)           111.3408         estimate D2E/DX2                !
 ! A40   A(1,18,16)             77.4348         estimate D2E/DX2                !
 ! A41   A(1,18,29)             99.1875         estimate D2E/DX2                !
 ! A42   A(1,18,38)             81.194          estimate D2E/DX2                !
 ! A43   A(16,18,29)            95.1519         estimate D2E/DX2                !
 ! A44   A(16,18,37)           104.5769         estimate D2E/DX2                !
 ! A45   A(16,18,38)            88.0687         estimate D2E/DX2                !
 ! A46   A(29,18,37)            94.9031         estimate D2E/DX2                !
 ! A47   A(37,18,38)            84.5576         estimate D2E/DX2                !
 ! A48   A(12,19,31)           107.1292         estimate D2E/DX2                !
 ! A49   A(12,19,32)           115.9432         estimate D2E/DX2                !
 ! A50   A(12,19,33)           107.032          estimate D2E/DX2                !
 ! A51   A(31,19,32)           111.1246         estimate D2E/DX2                !
 ! A52   A(31,19,33)           103.9944         estimate D2E/DX2                !
 ! A53   A(32,19,33)           110.8422         estimate D2E/DX2                !
 ! A54   A(16,20,23)           105.799          estimate D2E/DX2                !
 ! A55   A(16,20,24)           109.5498         estimate D2E/DX2                !
 ! A56   A(16,20,25)           113.8819         estimate D2E/DX2                !
 ! A57   A(23,20,24)           108.0886         estimate D2E/DX2                !
 ! A58   A(23,20,25)           109.1909         estimate D2E/DX2                !
 ! A59   A(24,20,25)           110.1011         estimate D2E/DX2                !
 ! A60   A(12,21,34)           106.3452         estimate D2E/DX2                !
 ! A61   A(12,21,35)           113.2835         estimate D2E/DX2                !
 ! A62   A(12,21,36)           110.8867         estimate D2E/DX2                !
 ! A63   A(34,21,35)           109.2716         estimate D2E/DX2                !
 ! A64   A(34,21,36)           106.4004         estimate D2E/DX2                !
 ! A65   A(35,21,36)           110.3345         estimate D2E/DX2                !
 ! A66   A(16,22,26)           106.8469         estimate D2E/DX2                !
 ! A67   A(16,22,27)           114.9044         estimate D2E/DX2                !
 ! A68   A(16,22,28)           107.8541         estimate D2E/DX2                !
 ! A69   A(26,22,27)           108.8249         estimate D2E/DX2                !
 ! A70   A(26,22,28)           107.5861         estimate D2E/DX2                !
 ! A71   A(27,22,28)           110.5322         estimate D2E/DX2                !
 ! A72   A(20,23,45)           108.6353         estimate D2E/DX2                !
 ! A73   A(20,23,46)           112.0969         estimate D2E/DX2                !
 ! A74   A(20,23,47)           111.2295         estimate D2E/DX2                !
 ! A75   A(45,23,46)           108.9077         estimate D2E/DX2                !
 ! A76   A(45,23,47)           109.2844         estimate D2E/DX2                !
 ! A77   A(46,23,47)           106.628          estimate D2E/DX2                !
 ! A78   A(20,24,48)           108.7252         estimate D2E/DX2                !
 ! A79   A(20,24,49)           111.4936         estimate D2E/DX2                !
 ! A80   A(20,24,50)           112.8551         estimate D2E/DX2                !
 ! A81   A(48,24,49)           107.509          estimate D2E/DX2                !
 ! A82   A(48,24,50)           107.3696         estimate D2E/DX2                !
 ! A83   A(49,24,50)           108.6703         estimate D2E/DX2                !
 ! A84   A(20,25,51)           108.8404         estimate D2E/DX2                !
 ! A85   A(20,25,52)           113.1322         estimate D2E/DX2                !
 ! A86   A(20,25,53)           111.7135         estimate D2E/DX2                !
 ! A87   A(51,25,52)           107.5024         estimate D2E/DX2                !
 ! A88   A(51,25,53)           106.9099         estimate D2E/DX2                !
 ! A89   A(52,25,53)           108.4744         estimate D2E/DX2                !
 ! A90   A(22,26,60)           108.7484         estimate D2E/DX2                !
 ! A91   A(22,26,61)           111.9144         estimate D2E/DX2                !
 ! A92   A(22,26,62)           112.3672         estimate D2E/DX2                !
 ! A93   A(60,26,61)           107.7916         estimate D2E/DX2                !
 ! A94   A(60,26,62)           107.4555         estimate D2E/DX2                !
 ! A95   A(61,26,62)           108.3696         estimate D2E/DX2                !
 ! A96   A(22,27,54)           112.3751         estimate D2E/DX2                !
 ! A97   A(22,27,55)           109.401          estimate D2E/DX2                !
 ! A98   A(22,27,56)           112.0275         estimate D2E/DX2                !
 ! A99   A(54,27,55)           107.2669         estimate D2E/DX2                !
 ! A100  A(54,27,56)           108.2714         estimate D2E/DX2                !
 ! A101  A(55,27,56)           107.2624         estimate D2E/DX2                !
 ! A102  A(22,28,57)           112.6988         estimate D2E/DX2                !
 ! A103  A(22,28,58)           111.229          estimate D2E/DX2                !
 ! A104  A(22,28,59)           109.165          estimate D2E/DX2                !
 ! A105  A(57,28,58)           108.2198         estimate D2E/DX2                !
 ! A106  A(57,28,59)           107.5486         estimate D2E/DX2                !
 ! A107  A(58,28,59)           107.7991         estimate D2E/DX2                !
 ! A108  A(19,32,42)           109.3869         estimate D2E/DX2                !
 ! A109  A(19,32,43)           112.5595         estimate D2E/DX2                !
 ! A110  A(19,32,44)           112.3569         estimate D2E/DX2                !
 ! A111  A(42,32,43)           107.1018         estimate D2E/DX2                !
 ! A112  A(42,32,44)           107.3824         estimate D2E/DX2                !
 ! A113  A(43,32,44)           107.7916         estimate D2E/DX2                !
 ! A114  A(21,35,39)           110.347          estimate D2E/DX2                !
 ! A115  A(21,35,40)           112.3232         estimate D2E/DX2                !
 ! A116  A(21,35,41)           109.3496         estimate D2E/DX2                !
 ! A117  A(39,35,40)           108.6072         estimate D2E/DX2                !
 ! A118  A(39,35,41)           108.8054         estimate D2E/DX2                !
 ! A119  A(40,35,41)           107.3054         estimate D2E/DX2                !
 ! A120  A(18,38,63)           103.547          estimate D2E/DX2                !
 ! A121  L(1,18,37,16,-1)      182.0118         estimate D2E/DX2                !
 ! A122  L(29,18,38,1,-1)      180.3814         estimate D2E/DX2                !
 ! A123  L(18,29,30,7,-1)      180.7692         estimate D2E/DX2                !
 ! A124  L(1,18,37,16,-2)      194.7256         estimate D2E/DX2                !
 ! A125  L(29,18,38,1,-2)      183.2524         estimate D2E/DX2                !
 ! A126  L(18,29,30,7,-2)      178.796          estimate D2E/DX2                !
 ! D1    D(3,1,2,4)             -2.0096         estimate D2E/DX2                !
 ! D2    D(3,1,2,7)            177.4725         estimate D2E/DX2                !
 ! D3    D(18,1,2,4)          -174.6974         estimate D2E/DX2                !
 ! D4    D(18,1,2,7)             4.7847         estimate D2E/DX2                !
 ! D5    D(2,1,3,6)              2.2134         estimate D2E/DX2                !
 ! D6    D(2,1,3,11)          -176.1436         estimate D2E/DX2                !
 ! D7    D(18,1,3,6)           174.9471         estimate D2E/DX2                !
 ! D8    D(18,1,3,11)           -3.4098         estimate D2E/DX2                !
 ! D9    D(2,1,18,16)         -160.708          estimate D2E/DX2                !
 ! D10   D(2,1,18,29)          -67.4321         estimate D2E/DX2                !
 ! D11   D(2,1,18,38)          109.3155         estimate D2E/DX2                !
 ! D12   D(3,1,18,16)           26.585          estimate D2E/DX2                !
 ! D13   D(3,1,18,29)          119.8609         estimate D2E/DX2                !
 ! D14   D(3,1,18,38)          -63.3915         estimate D2E/DX2                !
 ! D15   D(1,2,4,5)              0.3844         estimate D2E/DX2                !
 ! D16   D(1,2,4,8)            179.7869         estimate D2E/DX2                !
 ! D17   D(7,2,4,5)           -179.0661         estimate D2E/DX2                !
 ! D18   D(7,2,4,8)              0.3364         estimate D2E/DX2                !
 ! D19   D(1,2,7,12)           -44.5409         estimate D2E/DX2                !
 ! D20   D(1,2,7,13)          -170.4952         estimate D2E/DX2                !
 ! D21   D(1,2,7,14)            73.1844         estimate D2E/DX2                !
 ! D22   D(4,2,7,12)           134.9399         estimate D2E/DX2                !
 ! D23   D(4,2,7,13)             8.9856         estimate D2E/DX2                !
 ! D24   D(4,2,7,14)          -107.3347         estimate D2E/DX2                !
 ! D25   D(1,3,6,5)             -0.8143         estimate D2E/DX2                !
 ! D26   D(1,3,6,10)           179.6371         estimate D2E/DX2                !
 ! D27   D(11,3,6,5)           177.4958         estimate D2E/DX2                !
 ! D28   D(11,3,6,10)           -2.0528         estimate D2E/DX2                !
 ! D29   D(1,3,11,15)           75.4907         estimate D2E/DX2                !
 ! D30   D(1,3,11,16)          -35.2545         estimate D2E/DX2                !
 ! D31   D(1,3,11,17)         -165.2823         estimate D2E/DX2                !
 ! D32   D(6,3,11,15)         -102.8652         estimate D2E/DX2                !
 ! D33   D(6,3,11,16)          146.3896         estimate D2E/DX2                !
 ! D34   D(6,3,11,17)           16.3618         estimate D2E/DX2                !
 ! D35   D(2,4,5,6)              1.0056         estimate D2E/DX2                !
 ! D36   D(2,4,5,9)           -179.9601         estimate D2E/DX2                !
 ! D37   D(8,4,5,6)           -178.3849         estimate D2E/DX2                !
 ! D38   D(8,4,5,9)              0.6494         estimate D2E/DX2                !
 ! D39   D(4,5,6,3)             -0.7976         estimate D2E/DX2                !
 ! D40   D(4,5,6,10)           178.7422         estimate D2E/DX2                !
 ! D41   D(9,5,6,3)           -179.8328         estimate D2E/DX2                !
 ! D42   D(9,5,6,10)            -0.293          estimate D2E/DX2                !
 ! D43   D(2,7,12,19)          -63.2921         estimate D2E/DX2                !
 ! D44   D(2,7,12,21)          165.9007         estimate D2E/DX2                !
 ! D45   D(13,7,12,19)          60.299          estimate D2E/DX2                !
 ! D46   D(13,7,12,21)         -70.5082         estimate D2E/DX2                !
 ! D47   D(14,7,12,19)         178.4292         estimate D2E/DX2                !
 ! D48   D(14,7,12,21)          47.622          estimate D2E/DX2                !
 ! D49   D(3,11,16,18)          45.4655         estimate D2E/DX2                !
 ! D50   D(3,11,16,20)         165.431          estimate D2E/DX2                !
 ! D51   D(3,11,16,22)         -78.3401         estimate D2E/DX2                !
 ! D52   D(15,11,16,18)        -67.6499         estimate D2E/DX2                !
 ! D53   D(15,11,16,20)         52.3156         estimate D2E/DX2                !
 ! D54   D(15,11,16,22)        168.5445         estimate D2E/DX2                !
 ! D55   D(17,11,16,18)        173.6353         estimate D2E/DX2                !
 ! D56   D(17,11,16,20)        -66.3992         estimate D2E/DX2                !
 ! D57   D(17,11,16,22)         49.8297         estimate D2E/DX2                !
 ! D58   D(7,12,19,31)          57.8544         estimate D2E/DX2                !
 ! D59   D(7,12,19,32)         -66.8489         estimate D2E/DX2                !
 ! D60   D(7,12,19,33)         168.8977         estimate D2E/DX2                !
 ! D61   D(21,12,19,31)       -173.1604         estimate D2E/DX2                !
 ! D62   D(21,12,19,32)         62.1362         estimate D2E/DX2                !
 ! D63   D(21,12,19,33)        -62.1171         estimate D2E/DX2                !
 ! D64   D(7,12,21,34)         -54.6465         estimate D2E/DX2                !
 ! D65   D(7,12,21,35)        -174.6893         estimate D2E/DX2                !
 ! D66   D(7,12,21,36)          60.6213         estimate D2E/DX2                !
 ! D67   D(19,12,21,34)        175.3139         estimate D2E/DX2                !
 ! D68   D(19,12,21,35)         55.271          estimate D2E/DX2                !
 ! D69   D(19,12,21,36)        -69.4184         estimate D2E/DX2                !
 ! D70   D(11,16,18,1)         -33.2975         estimate D2E/DX2                !
 ! D71   D(11,16,18,29)       -131.5857         estimate D2E/DX2                !
 ! D72   D(11,16,18,37)        131.9769         estimate D2E/DX2                !
 ! D73   D(11,16,18,38)         48.1091         estimate D2E/DX2                !
 ! D74   D(20,16,18,1)        -137.0533         estimate D2E/DX2                !
 ! D75   D(20,16,18,29)        124.6586         estimate D2E/DX2                !
 ! D76   D(20,16,18,37)         28.2212         estimate D2E/DX2                !
 ! D77   D(20,16,18,38)        -55.6466         estimate D2E/DX2                !
 ! D78   D(22,16,18,1)          74.7238         estimate D2E/DX2                !
 ! D79   D(22,16,18,29)        -23.5644         estimate D2E/DX2                !
 ! D80   D(22,16,18,37)       -120.0018         estimate D2E/DX2                !
 ! D81   D(22,16,18,38)        156.1304         estimate D2E/DX2                !
 ! D82   D(11,16,20,23)        -81.6658         estimate D2E/DX2                !
 ! D83   D(11,16,20,24)        162.0456         estimate D2E/DX2                !
 ! D84   D(11,16,20,25)         38.2608         estimate D2E/DX2                !
 ! D85   D(18,16,20,23)         15.2585         estimate D2E/DX2                !
 ! D86   D(18,16,20,24)       -101.0302         estimate D2E/DX2                !
 ! D87   D(18,16,20,25)        135.1851         estimate D2E/DX2                !
 ! D88   D(22,16,20,23)        166.7654         estimate D2E/DX2                !
 ! D89   D(22,16,20,24)         50.4767         estimate D2E/DX2                !
 ! D90   D(22,16,20,25)        -73.308          estimate D2E/DX2                !
 ! D91   D(11,16,22,26)         54.2922         estimate D2E/DX2                !
 ! D92   D(11,16,22,27)        -66.525          estimate D2E/DX2                !
 ! D93   D(11,16,22,28)        169.7088         estimate D2E/DX2                !
 ! D94   D(18,16,22,26)        -45.7171         estimate D2E/DX2                !
 ! D95   D(18,16,22,27)       -166.5342         estimate D2E/DX2                !
 ! D96   D(18,16,22,28)         69.6996         estimate D2E/DX2                !
 ! D97   D(20,16,22,26)        163.8474         estimate D2E/DX2                !
 ! D98   D(20,16,22,27)         43.0303         estimate D2E/DX2                !
 ! D99   D(20,16,22,28)        -80.7359         estimate D2E/DX2                !
 ! D100  D(1,18,38,63)        -174.6478         estimate D2E/DX2                !
 ! D101  D(16,18,38,63)        107.7705         estimate D2E/DX2                !
 ! D102  D(37,18,38,63)          2.9272         estimate D2E/DX2                !
 ! D103  D(12,19,32,42)        179.8091         estimate D2E/DX2                !
 ! D104  D(12,19,32,43)         60.8773         estimate D2E/DX2                !
 ! D105  D(12,19,32,44)        -61.0356         estimate D2E/DX2                !
 ! D106  D(31,19,32,42)         57.1869         estimate D2E/DX2                !
 ! D107  D(31,19,32,43)        -61.7448         estimate D2E/DX2                !
 ! D108  D(31,19,32,44)        176.3423         estimate D2E/DX2                !
 ! D109  D(33,19,32,42)        -57.9315         estimate D2E/DX2                !
 ! D110  D(33,19,32,43)       -176.8633         estimate D2E/DX2                !
 ! D111  D(33,19,32,44)         61.2239         estimate D2E/DX2                !
 ! D112  D(16,20,23,45)        179.6128         estimate D2E/DX2                !
 ! D113  D(16,20,23,46)         59.2154         estimate D2E/DX2                !
 ! D114  D(16,20,23,47)        -60.0622         estimate D2E/DX2                !
 ! D115  D(24,20,23,45)        -63.112          estimate D2E/DX2                !
 ! D116  D(24,20,23,46)        176.4907         estimate D2E/DX2                !
 ! D117  D(24,20,23,47)         57.2131         estimate D2E/DX2                !
 ! D118  D(25,20,23,45)         56.6572         estimate D2E/DX2                !
 ! D119  D(25,20,23,46)        -63.7402         estimate D2E/DX2                !
 ! D120  D(25,20,23,47)        176.9822         estimate D2E/DX2                !
 ! D121  D(16,20,24,48)        169.3288         estimate D2E/DX2                !
 ! D122  D(16,20,24,49)         50.9763         estimate D2E/DX2                !
 ! D123  D(16,20,24,50)        -71.662          estimate D2E/DX2                !
 ! D124  D(23,20,24,48)         54.4989         estimate D2E/DX2                !
 ! D125  D(23,20,24,49)        -63.8536         estimate D2E/DX2                !
 ! D126  D(23,20,24,50)        173.5081         estimate D2E/DX2                !
 ! D127  D(25,20,24,48)        -64.6956         estimate D2E/DX2                !
 ! D128  D(25,20,24,49)        176.952          estimate D2E/DX2                !
 ! D129  D(25,20,24,50)         54.3136         estimate D2E/DX2                !
 ! D130  D(16,20,25,51)        179.9722         estimate D2E/DX2                !
 ! D131  D(16,20,25,52)         60.5448         estimate D2E/DX2                !
 ! D132  D(16,20,25,53)        -62.2085         estimate D2E/DX2                !
 ! D133  D(23,20,25,51)        -62.0335         estimate D2E/DX2                !
 ! D134  D(23,20,25,52)        178.5391         estimate D2E/DX2                !
 ! D135  D(23,20,25,53)         55.7858         estimate D2E/DX2                !
 ! D136  D(24,20,25,51)         56.4862         estimate D2E/DX2                !
 ! D137  D(24,20,25,52)        -62.9413         estimate D2E/DX2                !
 ! D138  D(24,20,25,53)        174.3055         estimate D2E/DX2                !
 ! D139  D(12,21,35,39)         50.2384         estimate D2E/DX2                !
 ! D140  D(12,21,35,40)        -71.104          estimate D2E/DX2                !
 ! D141  D(12,21,35,41)        169.8831         estimate D2E/DX2                !
 ! D142  D(34,21,35,39)        -68.1222         estimate D2E/DX2                !
 ! D143  D(34,21,35,40)        170.5353         estimate D2E/DX2                !
 ! D144  D(34,21,35,41)         51.5224         estimate D2E/DX2                !
 ! D145  D(36,21,35,39)        175.2262         estimate D2E/DX2                !
 ! D146  D(36,21,35,40)         53.8838         estimate D2E/DX2                !
 ! D147  D(36,21,35,41)        -65.1291         estimate D2E/DX2                !
 ! D148  D(16,22,26,60)        170.3542         estimate D2E/DX2                !
 ! D149  D(16,22,26,61)         51.384          estimate D2E/DX2                !
 ! D150  D(16,22,26,62)        -70.8154         estimate D2E/DX2                !
 ! D151  D(27,22,26,60)        -65.0289         estimate D2E/DX2                !
 ! D152  D(27,22,26,61)        176.001          estimate D2E/DX2                !
 ! D153  D(27,22,26,62)         53.8015         estimate D2E/DX2                !
 ! D154  D(28,22,26,60)         54.7581         estimate D2E/DX2                !
 ! D155  D(28,22,26,61)        -64.2121         estimate D2E/DX2                !
 ! D156  D(28,22,26,62)        173.5884         estimate D2E/DX2                !
 ! D157  D(16,22,27,54)        -66.2519         estimate D2E/DX2                !
 ! D158  D(16,22,27,55)        174.7165         estimate D2E/DX2                !
 ! D159  D(16,22,27,56)         55.9088         estimate D2E/DX2                !
 ! D160  D(26,22,27,54)        174.0213         estimate D2E/DX2                !
 ! D161  D(26,22,27,55)         54.9897         estimate D2E/DX2                !
 ! D162  D(26,22,27,56)        -63.818          estimate D2E/DX2                !
 ! D163  D(28,22,27,54)         56.0812         estimate D2E/DX2                !
 ! D164  D(28,22,27,55)        -62.9503         estimate D2E/DX2                !
 ! D165  D(28,22,27,56)        178.2419         estimate D2E/DX2                !
 ! D166  D(16,22,28,57)         67.6611         estimate D2E/DX2                !
 ! D167  D(16,22,28,58)        -54.0793         estimate D2E/DX2                !
 ! D168  D(16,22,28,59)       -172.9075         estimate D2E/DX2                !
 ! D169  D(26,22,28,57)       -177.4096         estimate D2E/DX2                !
 ! D170  D(26,22,28,58)         60.85           estimate D2E/DX2                !
 ! D171  D(26,22,28,59)        -57.9782         estimate D2E/DX2                !
 ! D172  D(27,22,28,57)        -58.7134         estimate D2E/DX2                !
 ! D173  D(27,22,28,58)        179.5462         estimate D2E/DX2                !
 ! D174  D(27,22,28,59)         60.718          estimate D2E/DX2                !
 --------------------------------------------------------------------------------
 Trust Radius=3.00D-01 FncErr=1.00D-07 GrdErr=1.00D-06 EigMax=2.50D+02 EigMin=1.00D-04
 Number of steps in this run=    374 maximum allowed number of steps=    378.
 GradGradGradGradGradGradGradGradGradGradGradGradGradGradGradGradGradGrad

 Stoichiometry    C20H36N2O3PRu(2)
 Framework group  C1[X(C20H36N2O3PRu)]
 Deg. of freedom   183
 Full point group                 C1      NOp   1
 Largest Abelian subgroup         C1      NOp   1
 Largest concise Abelian subgroup C1      NOp   1
                         Standard orientation:                         
 ---------------------------------------------------------------------
 Center     Atomic      Atomic             Coordinates (Angstroms)
 Number     Number       Type             X           Y           Z
 ---------------------------------------------------------------------
      1          7           0       -0.729272    1.298324   -0.118328
      2          6           0       -1.876273    1.889567    0.259448
      3          6           0        0.213165    2.013692   -0.758059
      4          6           0       -2.109691    3.242771    0.045422
      5          6           0       -1.129812    4.003044   -0.585048
      6          6           0        0.038330    3.379121   -0.997406
      7          6           0       -2.891843    0.998783    0.913957
      8          1           0       -3.055252    3.682814    0.364070
      9          1           0       -1.283545    5.068420   -0.766608
     10          1           0        0.822574    3.934307   -1.513288
     11          6           0        1.435468    1.298807   -1.238381
     12          7           0       -3.017624   -0.250409    0.187889
     13          1           0       -3.848326    1.547073    1.023639
     14          1           0       -2.541269    0.758236    1.932216
     15          1           0        1.120478    0.734374   -2.136957
     16         15           0        1.978607   -0.063011   -0.101801
     17          1           0        2.227463    2.013998   -1.501130
     18         44           0       -0.484492   -0.892997    0.089827
     19          6           0       -3.514636   -0.076756   -1.180565
     20          6           0        3.199840   -1.024692   -1.196877
     21          6           0       -3.737913   -1.248868    0.978087
     22          6           0        2.874210    0.814361    1.328177
     23          6           0        2.340459   -1.936249   -2.079105
     24          6           0        4.085359   -1.910325   -0.319924
     25          6           0        4.066043   -0.133866   -2.088100
     26          6           0        1.902840    1.860752    1.885241
     27          6           0        4.177379    1.508808    0.940870
     28          6           0        3.123499   -0.219772    2.431452
     29          6           0       -0.475506   -1.014873    1.931082
     30          8           0       -0.471892   -1.119529    3.093256
     31          1           0       -2.817617    0.599708   -1.694684
     32          6           0       -4.950641    0.412517   -1.310649
     33          1           0       -3.381097   -1.036561   -1.695212
     34          1           0       -3.204108   -1.328007    1.938747
     35          6           0       -3.786836   -2.613545    0.318821
     36          1           0       -4.764406   -0.898942    1.217624
     37          8           0       -0.376677   -2.845136   -0.209339
     38          8           0       -0.607206   -0.783633   -1.953302
     39          1           0       -2.777458   -2.923387    0.004164
     40          1           0       -4.448862   -2.629716   -0.559763
     41          1           0       -4.176786   -3.351134    1.036074
     42          1           0       -5.209060    0.507614   -2.376129
     43          1           0       -5.103362    1.401822   -0.850709
     44          1           0       -5.673168   -0.284210   -0.857820
     45          1           0        3.006061   -2.514419   -2.742386
     46          1           0        1.631310   -1.366154   -2.695343
     47          1           0        1.741843   -2.630057   -1.470831
     48          1           0        4.650787   -2.599135   -0.969341
     49          1           0        3.485416   -2.523199    0.370085
     50          1           0        4.817440   -1.335856    0.265427
     51          1           0        4.739934   -0.773331   -2.683755
     52          1           0        4.692341    0.566524   -1.519536
     53          1           0        3.458403    0.441947   -2.801133
     54          1           0        4.954904    0.796694    0.631488
     55          1           0        4.569304    2.064521    1.810544
     56          1           0        4.031735    2.236067    0.127003
     57          1           0        3.847879   -0.988678    2.135172
     58          1           0        2.190081   -0.721657    2.725079
     59          1           0        3.526367    0.291095    3.322358
     60          1           0        2.319141    2.267741    2.821819
     61          1           0        0.919118    1.426116    2.115660
     62          1           0        1.755976    2.704373    1.195589
     63          1           0       -0.611837   -1.710661   -2.229996
 ---------------------------------------------------------------------
 Rotational constants (GHZ):           0.2474837           0.1414466           0.1226310
 General basis read from cards:  (5D, 7F)
 ======================================================================================================
                                       Pseudopotential Parameters
 ======================================================================================================
  Center     Atomic      Valence      Angular      Power
  Number     Number     Electrons     Momentum     of R      Exponent        Coefficient   SO-Coeffient
 ======================================================================================================
    1          7
                                   No pseudopotential on this center.
    2          6
                                   No pseudopotential on this center.
    3          6
                                   No pseudopotential on this center.
    4          6
                                   No pseudopotential on this center.
    5          6
                                   No pseudopotential on this center.
    6          6
                                   No pseudopotential on this center.
    7          6
                                   No pseudopotential on this center.
    8          1
                                   No pseudopotential on this center.
    9          1
                                   No pseudopotential on this center.
   10          1
                                   No pseudopotential on this center.
   11          6
                                   No pseudopotential on this center.
   12          7
                                   No pseudopotential on this center.
   13          1
                                   No pseudopotential on this center.
   14          1
                                   No pseudopotential on this center.
   15          1
                                   No pseudopotential on this center.
   16         15
                                   No pseudopotential on this center.
   17          1
                                   No pseudopotential on this center.
   18         44           16
                                      G and up 
                                                     2        1.0000000        0.00000000    0.00000000
                                      S - G
                                                     2       11.1052690      209.82297100    0.00000000
                                                     2        5.4147450       30.65472600    0.00000000
                                      P - G
                                                     2        9.7712710      146.33618200    0.00000000
                                                     2        5.0739910       24.12787700    0.00000000
                                      D - G
                                                     2        7.6714230       67.51589700    0.00000000
                                                     2        4.1365650        9.87010400    0.00000000
                                      F - G
                                                     2       11.3600000      -28.34061600    0.00000000
                                                     2        5.6800000       -4.94462900    0.00000000
   19          6
                                   No pseudopotential on this center.
   20          6
                                   No pseudopotential on this center.
   21          6
                                   No pseudopotential on this center.
   22          6
                                   No pseudopotential on this center.
   23          6
                                   No pseudopotential on this center.
   24          6
                                   No pseudopotential on this center.
   25          6
                                   No pseudopotential on this center.
   26          6
                                   No pseudopotential on this center.
   27          6
                                   No pseudopotential on this center.
   28          6
                                   No pseudopotential on this center.
   29          6
                                   No pseudopotential on this center.
   30          8
                                   No pseudopotential on this center.
   31          1
                                   No pseudopotential on this center.
   32          6
                                   No pseudopotential on this center.
   33          1
                                   No pseudopotential on this center.
   34          1
                                   No pseudopotential on this center.
   35          6
                                   No pseudopotential on this center.
   36          1
                                   No pseudopotential on this center.
   37          8
                                   No pseudopotential on this center.
   38          8
                                   No pseudopotential on this center.
   39          1
                                   No pseudopotential on this center.
   40          1
                                   No pseudopotential on this center.
   41          1
                                   No pseudopotential on this center.
   42          1
                                   No pseudopotential on this center.
   43          1
                                   No pseudopotential on this center.
   44          1
                                   No pseudopotential on this center.
   45          1
                                   No pseudopotential on this center.
   46          1
                                   No pseudopotential on this center.
   47          1
                                   No pseudopotential on this center.
   48          1
                                   No pseudopotential on this center.
   49          1
                                   No pseudopotential on this center.
   50          1
                                   No pseudopotential on this center.
   51          1
                                   No pseudopotential on this center.
   52          1
                                   No pseudopotential on this center.
   53          1
                                   No pseudopotential on this center.
   54          1
                                   No pseudopotential on this center.
   55          1
                                   No pseudopotential on this center.
   56          1
                                   No pseudopotential on this center.
   57          1
                                   No pseudopotential on this center.
   58          1
                                   No pseudopotential on this center.
   59          1
                                   No pseudopotential on this center.
   60          1
                                   No pseudopotential on this center.
   61          1
                                   No pseudopotential on this center.
   62          1
                                   No pseudopotential on this center.
   63          1
                                   No pseudopotential on this center.
 ======================================================================================================
 There are   613 symmetry adapted cartesian basis functions of A   symmetry.
 There are   584 symmetry adapted basis functions of A   symmetry.
   584 basis functions,  1213 primitive gaussians,   613 cartesian basis functions
   113 alpha electrons      112 beta electrons
       nuclear repulsion energy      3388.8445199083 Hartrees.
 NAtoms=   63 NActive=   63 NUniq=   63 SFac= 1.00D+00 NAtFMM=   60 NAOKFM=T Big=T
 Integral buffers will be    131072 words long.
 Raffenetti 2 integral format.
 Two-electron integral symmetry is turned on.
 Nuclear repulsion after empirical dispersion term =     3388.7490551922 Hartrees.
 One-electron integrals computed using PRISM.
   1 Symmetry operations used in ECPInt.
 ECPInt:  NShTT=   39340 NPrTT=  276277 LenC2=   36109 LenP2D=  137850.
 LDataN:  DoStor=T MaxTD1= 6 Len=  172
 NBasis=   584 RedAO= T EigKep=  4.49D-04  NBF=   584
 NBsUse=   584 1.00D-06 EigRej= -1.00D+00 NBFU=   584
 Defaulting to unpruned grid for atomic number  44.
 ExpMin= 1.60D-02 ExpMax= 9.48D+04 ExpMxC= 3.24D+03 IAcc=3 IRadAn=         5 AccDes= 0.00D+00
 Harris functional with IExCor= 1009 and IRadAn=       5 diagonalized for initial guess.
 HarFok:  IExCor= 1009 AccDes= 0.00D+00 IRadAn=         5 IDoV= 1 UseB2=F ITyADJ=14
 ICtDFT=  3500011 ScaDFX=  1.000000  1.000000  1.000000  1.000000
 Defaulting to unpruned grid for atomic number  44.
 FoFCou: FMM=F IPFlag=           0 FMFlag=      100000 FMFlg1=        2001
         NFxFlg=           0 DoJE=T BraDBF=F KetDBF=T FulRan=T
         wScrn=  0.000000 ICntrl=       500 IOpCl=  0 I1Cent=   200000004 NGrid=           0
         NMat0=    1 NMatS0=      1 NMatT0=    0 NMatD0=    1 NMtDS0=    0 NMtDT0=    0
 Petite list used in FoFCou.
 Initial guess <Sx>= 0.0000 <Sy>= 0.0000 <Sz>= 0.5000 <S**2>= 0.7500 S= 0.5000
 Requested convergence on RMS density matrix=1.00D-08 within 128 cycles.
 Requested convergence on MAX density matrix=1.00D-06.
 Requested convergence on             energy=1.00D-06.
 No special actions if energy rises.
 Defaulting to unpruned grid for atomic number  44.
 Defaulting to unpruned grid for atomic number  44.
 Defaulting to unpruned grid for atomic number  44.
 Defaulting to unpruned grid for atomic number  44.
 Defaulting to unpruned grid for atomic number  44.
 Defaulting to unpruned grid for atomic number  44.
 Defaulting to unpruned grid for atomic number  44.
 Defaulting to unpruned grid for atomic number  44.
 Defaulting to unpruned grid for atomic number  44.
 Defaulting to unpruned grid for atomic number  44.
 Defaulting to unpruned grid for atomic number  44.
 Defaulting to unpruned grid for atomic number  44.
 Defaulting to unpruned grid for atomic number  44.
 Defaulting to unpruned grid for atomic number  44.
 Defaulting to unpruned grid for atomic number  44.
 Defaulting to unpruned grid for atomic number  44.
 EnCoef did    31 forward-backward iterations
 EnCoef did   100 forward-backward iterations
 Restarting incremental Fock formation.
 SCF Done:  E(UPBE1PBE) =  -1553.97504194     A.U. after   34 cycles
            NFock= 34  Conv=0.55D-08     -V/T= 2.0469
 <Sx>= 0.0000 <Sy>= 0.0000 <Sz>= 0.5000 <S**2>= 0.7710 S= 0.5104
 <L.S>= 0.000000000000E+00
 Annihilation of the first spin contaminant:
 S**2 before annihilation     0.7710,   after     0.7502

 **********************************************************************

            Population analysis using the SCF density.

 **********************************************************************

 Orbital symmetries:
 Alpha Orbitals:
       Occupied  (A) (A) (A) (A) (A) (A) (A) (A) (A) (A) (A) (A)
                 (A) (A) (A) (A) (A) (A) (A) (A) (A) (A) (A) (A)
                 (A) (A) (A) (A) (A) (A) (A) (A) (A) (A) (A) (A)
                 (A) (A) (A) (A) (A) (A) (A) (A) (A) (A) (A) (A)
                 (A) (A) (A) (A) (A) (A) (A) (A) (A) (A) (A) (A)
                 (A) (A) (A) (A) (A) (A) (A) (A) (A) (A) (A) (A)
                 (A) (A) (A) (A) (A) (A) (A) (A) (A) (A) (A) (A)
                 (A) (A) (A) (A) (A) (A) (A) (A) (A) (A) (A) (A)
                 (A) (A) (A) (A) (A) (A) (A) (A) (A) (A) (A) (A)
                 (A) (A) (A) (A) (A)
       Virtual   (A) (A) (A) (A) (A) (A) (A) (A) (A) (A) (A) (A)
                 (A) (A) (A) (A) (A) (A) (A) (A) (A) (A) (A) (A)
                 (A) (A) (A) (A) (A) (A) (A) (A) (A) (A) (A) (A)
                 (A) (A) (A) (A) (A) (A) (A) (A) (A) (A) (A) (A)
                 (A) (A) (A) (A) (A) (A) (A) (A) (A) (A) (A) (A)
                 (A) (A) (A) (A) (A) (A) (A) (A) (A) (A) (A) (A)
                 (A) (A) (A) (A) (A) (A) (A) (A) (A) (A) (A) (A)
                 (A) (A) (A) (A) (A) (A) (A) (A) (A) (A) (A) (A)
                 (A) (A) (A) (A) (A) (A) (A) (A) (A) (A) (A) (A)
                 (A) (A) (A) (A) (A) (A) (A) (A) (A) (A) (A) (A)
                 (A) (A) (A) (A) (A) (A) (A) (A) (A) (A) (A) (A)
                 (A) (A) (A) (A) (A) (A) (A) (A) (A) (A) (A) (A)
                 (A) (A) (A) (A) (A) (A) (A) (A) (A) (A) (A) (A)
                 (A) (A) (A) (A) (A) (A) (A) (A) (A) (A) (A) (A)
                 (A) (A) (A) (A) (A) (A) (A) (A) (A) (A) (A) (A)
                 (A) (A) (A) (A) (A) (A) (A) (A) (A) (A) (A) (A)
                 (A) (A) (A) (A) (A) (A) (A) (A) (A) (A) (A) (A)
                 (A) (A) (A) (A) (A) (A) (A) (A) (A) (A) (A) (A)
                 (A) (A) (A) (A) (A) (A) (A) (A) (A) (A) (A) (A)
                 (A) (A) (A) (A) (A) (A) (A) (A) (A) (A) (A) (A)
                 (A) (A) (A) (A) (A) (A) (A) (A) (A) (A) (A) (A)
                 (A) (A) (A) (A) (A) (A) (A) (A) (A) (A) (A) (A)
                 (A) (A) (A) (A) (A) (A) (A) (A) (A) (A) (A) (A)
                 (A) (A) (A) (A) (A) (A) (A) (A) (A) (A) (A) (A)
                 (A) (A) (A) (A) (A) (A) (A) (A) (A) (A) (A) (A)
                 (A) (A) (A) (A) (A) (A) (A) (A) (A) (A) (A) (A)
                 (A) (A) (A) (A) (A) (A) (A) (A) (A) (A) (A) (A)
                 (A) (A) (A) (A) (A) (A) (A) (A) (A) (A) (A) (A)
                 (A) (A) (A) (A) (A) (A) (A) (A) (A) (A) (A) (A)
                 (A) (A) (A) (A) (A) (A) (A) (A) (A) (A) (A) (A)
                 (A) (A) (A) (A) (A) (A) (A) (A) (A) (A) (A) (A)
                 (A) (A) (A) (A) (A) (A) (A) (A) (A) (A) (A) (A)
                 (A) (A) (A) (A) (A) (A) (A) (A) (A) (A) (A) (A)
                 (A) (A) (A) (A) (A) (A) (A) (A) (A) (A) (A) (A)
                 (A) (A) (A) (A) (A) (A) (A) (A) (A) (A) (A) (A)
                 (A) (A) (A) (A) (A) (A) (A) (A) (A) (A) (A) (A)
                 (A) (A) (A) (A) (A) (A) (A) (A) (A) (A) (A) (A)
                 (A) (A) (A) (A) (A) (A) (A) (A) (A) (A) (A) (A)
                 (A) (A) (A) (A) (A) (A) (A) (A) (A) (A) (A) (A)
                 (A) (A) (A)
 Beta  Orbitals:
       Occupied  (A) (A) (A) (A) (A) (A) (A) (A) (A) (A) (A) (A)
                 (A) (A) (A) (A) (A) (A) (A) (A) (A) (A) (A) (A)
                 (A) (A) (A) (A) (A) (A) (A) (A) (A) (A) (A) (A)
                 (A) (A) (A) (A) (A) (A) (A) (A) (A) (A) (A) (A)
                 (A) (A) (A) (A) (A) (A) (A) (A) (A) (A) (A) (A)
                 (A) (A) (A) (A) (A) (A) (A) (A) (A) (A) (A) (A)
                 (A) (A) (A) (A) (A) (A) (A) (A) (A) (A) (A) (A)
                 (A) (A) (A) (A) (A) (A) (A) (A) (A) (A) (A) (A)
                 (A) (A) (A) (A) (A) (A) (A) (A) (A) (A) (A) (A)
                 (A) (A) (A) (A)
       Virtual   (A) (A) (A) (A) (A) (A) (A) (A) (A) (A) (A) (A)
                 (A) (A) (A) (A) (A) (A) (A) (A) (A) (A) (A) (A)
                 (A) (A) (A) (A) (A) (A) (A) (A) (A) (A) (A) (A)
                 (A) (A) (A) (A) (A) (A) (A) (A) (A) (A) (A) (A)
                 (A) (A) (A) (A) (A) (A) (A) (A) (A) (A) (A) (A)
                 (A) (A) (A) (A) (A) (A) (A) (A) (A) (A) (A) (A)
                 (A) (A) (A) (A) (A) (A) (A) (A) (A) (A) (A) (A)
                 (A) (A) (A) (A) (A) (A) (A) (A) (A) (A) (A) (A)
                 (A) (A) (A) (A) (A) (A) (A) (A) (A) (A) (A) (A)
                 (A) (A) (A) (A) (A) (A) (A) (A) (A) (A) (A) (A)
                 (A) (A) (A) (A) (A) (A) (A) (A) (A) (A) (A) (A)
                 (A) (A) (A) (A) (A) (A) (A) (A) (A) (A) (A) (A)
                 (A) (A) (A) (A) (A) (A) (A) (A) (A) (A) (A) (A)
                 (A) (A) (A) (A) (A) (A) (A) (A) (A) (A) (A) (A)
                 (A) (A) (A) (A) (A) (A) (A) (A) (A) (A) (A) (A)
                 (A) (A) (A) (A) (A) (A) (A) (A) (A) (A) (A) (A)
                 (A) (A) (A) (A) (A) (A) (A) (A) (A) (A) (A) (A)
                 (A) (A) (A) (A) (A) (A) (A) (A) (A) (A) (A) (A)
                 (A) (A) (A) (A) (A) (A) (A) (A) (A) (A) (A) (A)
                 (A) (A) (A) (A) (A) (A) (A) (A) (A) (A) (A) (A)
                 (A) (A) (A) (A) (A) (A) (A) (A) (A) (A) (A) (A)
                 (A) (A) (A) (A) (A) (A) (A) (A) (A) (A) (A) (A)
                 (A) (A) (A) (A) (A) (A) (A) (A) (A) (A) (A) (A)
                 (A) (A) (A) (A) (A) (A) (A) (A) (A) (A) (A) (A)
                 (A) (A) (A) (A) (A) (A) (A) (A) (A) (A) (A) (A)
                 (A) (A) (A) (A) (A) (A) (A) (A) (A) (A) (A) (A)
                 (A) (A) (A) (A) (A) (A) (A) (A) (A) (A) (A) (A)
                 (A) (A) (A) (A) (A) (A) (A) (A) (A) (A) (A) (A)
                 (A) (A) (A) (A) (A) (A) (A) (A) (A) (A) (A) (A)
                 (A) (A) (A) (A) (A) (A) (A) (A) (A) (A) (A) (A)
                 (A) (A) (A) (A) (A) (A) (A) (A) (A) (A) (A) (A)
                 (A) (A) (A) (A) (A) (A) (A) (A) (A) (A) (A) (A)
                 (A) (A) (A) (A) (A) (A) (A) (A) (A) (A) (A) (A)
                 (A) (A) (A) (A) (A) (A) (A) (A) (A) (A) (A) (A)
                 (A) (A) (A) (A) (A) (A) (A) (A) (A) (A) (A) (A)
                 (A) (A) (A) (A) (A) (A) (A) (A) (A) (A) (A) (A)
                 (A) (A) (A) (A) (A) (A) (A) (A) (A) (A) (A) (A)
                 (A) (A) (A) (A) (A) (A) (A) (A) (A) (A) (A) (A)
                 (A) (A) (A) (A) (A) (A) (A) (A) (A) (A) (A) (A)
                 (A) (A) (A) (A)
 The electronic state is 2-A.
 Alpha  occ. eigenvalues --  -77.27042 -19.24590 -19.15557 -19.11722 -14.44447
 Alpha  occ. eigenvalues --  -14.42866 -10.30818 -10.30257 -10.30050 -10.28053
 Alpha  occ. eigenvalues --  -10.27696 -10.27606 -10.26676 -10.26558 -10.26534
 Alpha  occ. eigenvalues --  -10.25894 -10.25666 -10.24995 -10.24611 -10.23730
 Alpha  occ. eigenvalues --  -10.23624 -10.23249 -10.23173 -10.22850 -10.21201
 Alpha  occ. eigenvalues --  -10.20861  -6.64903  -4.78546  -4.78473  -4.78218
 Alpha  occ. eigenvalues --   -3.04761  -1.87905  -1.87693  -1.87335  -1.10820
 Alpha  occ. eigenvalues --   -1.01499  -0.97451  -0.89265  -0.86776  -0.85751
 Alpha  occ. eigenvalues --   -0.85444  -0.84634  -0.84153  -0.78301  -0.78167
 Alpha  occ. eigenvalues --   -0.75335  -0.72535  -0.71851  -0.71249  -0.71185
 Alpha  occ. eigenvalues --   -0.69924  -0.67293  -0.66775  -0.64246  -0.63134
 Alpha  occ. eigenvalues --   -0.58004  -0.57542  -0.54935  -0.54768  -0.54282
 Alpha  occ. eigenvalues --   -0.53031  -0.51702  -0.50724  -0.49715  -0.48722
 Alpha  occ. eigenvalues --   -0.47684  -0.47310  -0.46544  -0.46108  -0.45650
 Alpha  occ. eigenvalues --   -0.45211  -0.44941  -0.44915  -0.44169  -0.43832
 Alpha  occ. eigenvalues --   -0.42996  -0.42688  -0.42170  -0.42103  -0.41759
 Alpha  occ. eigenvalues --   -0.41570  -0.40795  -0.40156  -0.39909  -0.39614
 Alpha  occ. eigenvalues --   -0.39204  -0.38557  -0.38457  -0.38014  -0.37376
 Alpha  occ. eigenvalues --   -0.37113  -0.36586  -0.36315  -0.35983  -0.35279
 Alpha  occ. eigenvalues --   -0.34693  -0.34544  -0.34442  -0.34149  -0.33855
 Alpha  occ. eigenvalues --   -0.32340  -0.31121  -0.30609  -0.29913  -0.28560
 Alpha  occ. eigenvalues --   -0.28060  -0.27463  -0.26852  -0.26665  -0.23584
 Alpha  occ. eigenvalues --   -0.19790  -0.19076  -0.18123
 Alpha virt. eigenvalues --   -0.05182  -0.04839  -0.03125   0.00961   0.02879
 Alpha virt. eigenvalues --    0.03186   0.03506   0.03845   0.04645   0.05405
 Alpha virt. eigenvalues --    0.06049   0.06761   0.07084   0.07700   0.08268
 Alpha virt. eigenvalues --    0.08343   0.09310   0.09502   0.10096   0.10897
 Alpha virt. eigenvalues --    0.11193   0.11950   0.12124   0.12737   0.12859
 Alpha virt. eigenvalues --    0.13045   0.13600   0.13797   0.13939   0.14173
 Alpha virt. eigenvalues --    0.14994   0.15313   0.15471   0.15724   0.16221
 Alpha virt. eigenvalues --    0.16438   0.17012   0.17396   0.17614   0.17908
 Alpha virt. eigenvalues --    0.18279   0.18944   0.19395   0.19486   0.19831
 Alpha virt. eigenvalues --    0.20096   0.20333   0.20648   0.21012   0.21134
 Alpha virt. eigenvalues --    0.21773   0.22017   0.22281   0.22669   0.23031
 Alpha virt. eigenvalues --    0.23237   0.23593   0.24180   0.24361   0.25373
 Alpha virt. eigenvalues --    0.26238   0.26645   0.27018   0.27542   0.27837
 Alpha virt. eigenvalues --    0.28172   0.28904   0.30110   0.30600   0.31425
 Alpha virt. eigenvalues --    0.31886   0.32365   0.34032   0.35049   0.35379
 Alpha virt. eigenvalues --    0.36802   0.38051   0.38671   0.40692   0.41256
 Alpha virt. eigenvalues --    0.41425   0.41813   0.42873   0.43577   0.43660
 Alpha virt. eigenvalues --    0.44234   0.44777   0.45985   0.46783   0.47165
 Alpha virt. eigenvalues --    0.48065   0.48430   0.48812   0.49263   0.49795
 Alpha virt. eigenvalues --    0.50282   0.51451   0.51942   0.52198   0.53109
 Alpha virt. eigenvalues --    0.53415   0.54033   0.54621   0.54973   0.55650
 Alpha virt. eigenvalues --    0.56729   0.57022   0.57231   0.57480   0.58605
 Alpha virt. eigenvalues --    0.58977   0.59312   0.59380   0.60623   0.60818
 Alpha virt. eigenvalues --    0.61397   0.61608   0.62273   0.62529   0.62914
 Alpha virt. eigenvalues --    0.63478   0.63806   0.64220   0.64420   0.64674
 Alpha virt. eigenvalues --    0.64915   0.65109   0.65383   0.65683   0.65998
 Alpha virt. eigenvalues --    0.66050   0.66191   0.66787   0.67166   0.67692
 Alpha virt. eigenvalues --    0.68081   0.68263   0.68549   0.68919   0.69232
 Alpha virt. eigenvalues --    0.69522   0.70826   0.71034   0.71403   0.71701
 Alpha virt. eigenvalues --    0.72066   0.72406   0.72732   0.72779   0.73111
 Alpha virt. eigenvalues --    0.73418   0.73865   0.74311   0.74807   0.75306
 Alpha virt. eigenvalues --    0.75400   0.75609   0.76149   0.76963   0.77902
 Alpha virt. eigenvalues --    0.78198   0.78713   0.78907   0.79451   0.79753
 Alpha virt. eigenvalues --    0.80244   0.81436   0.81804   0.82607   0.83073
 Alpha virt. eigenvalues --    0.83134   0.83899   0.84522   0.85489   0.86071
 Alpha virt. eigenvalues --    0.86761   0.87433   0.87939   0.88204   0.88702
 Alpha virt. eigenvalues --    0.88862   0.90665   0.90736   0.91178   0.92241
 Alpha virt. eigenvalues --    0.92681   0.93619   0.94161   0.94709   0.96014
 Alpha virt. eigenvalues --    0.96239   0.97377   0.97499   0.98114   0.98887
 Alpha virt. eigenvalues --    0.99154   0.99606   1.00745   1.01414   1.02282
 Alpha virt. eigenvalues --    1.02862   1.03839   1.04603   1.05731   1.06868
 Alpha virt. eigenvalues --    1.08322   1.10166   1.10659   1.11801   1.12580
 Alpha virt. eigenvalues --    1.12961   1.13697   1.15567   1.16115   1.16179
 Alpha virt. eigenvalues --    1.17752   1.18974   1.19518   1.21405   1.22179
 Alpha virt. eigenvalues --    1.22401   1.22645   1.23623   1.23936   1.25632
 Alpha virt. eigenvalues --    1.26562   1.27974   1.28769   1.29457   1.30655
 Alpha virt. eigenvalues --    1.31804   1.31849   1.32130   1.32942   1.33485
 Alpha virt. eigenvalues --    1.34060   1.34196   1.34673   1.35335   1.35931
 Alpha virt. eigenvalues --    1.37802   1.37969   1.38863   1.39228   1.40415
 Alpha virt. eigenvalues --    1.40811   1.41159   1.41954   1.42886   1.42986
 Alpha virt. eigenvalues --    1.43484   1.43869   1.44101   1.44882   1.44988
 Alpha virt. eigenvalues --    1.45737   1.46011   1.46423   1.46952   1.47224
 Alpha virt. eigenvalues --    1.48305   1.48747   1.49140   1.49946   1.50048
 Alpha virt. eigenvalues --    1.51534   1.51616   1.52055   1.52697   1.53263
 Alpha virt. eigenvalues --    1.53905   1.54089   1.55780   1.56414   1.56810
 Alpha virt. eigenvalues --    1.57770   1.58197   1.59607   1.59963   1.61035
 Alpha virt. eigenvalues --    1.61772   1.62033   1.62296   1.63106   1.63465
 Alpha virt. eigenvalues --    1.64013   1.65123   1.65313   1.65572   1.66160
 Alpha virt. eigenvalues --    1.66735   1.66879   1.67247   1.67816   1.68567
 Alpha virt. eigenvalues --    1.68944   1.69228   1.69843   1.70236   1.70516
 Alpha virt. eigenvalues --    1.70987   1.71475   1.71649   1.71946   1.72601
 Alpha virt. eigenvalues --    1.73020   1.73112   1.73567   1.73969   1.74307
 Alpha virt. eigenvalues --    1.74685   1.74977   1.75903   1.75993   1.76151
 Alpha virt. eigenvalues --    1.76738   1.77161   1.77716   1.78102   1.79209
 Alpha virt. eigenvalues --    1.79626   1.80060   1.80621   1.81007   1.81456
 Alpha virt. eigenvalues --    1.82138   1.82874   1.83261   1.83804   1.84595
 Alpha virt. eigenvalues --    1.85010   1.86188   1.86361   1.86825   1.87708
 Alpha virt. eigenvalues --    1.88505   1.89042   1.89474   1.90123   1.90754
 Alpha virt. eigenvalues --    1.91380   1.92121   1.92329   1.94088   1.95142
 Alpha virt. eigenvalues --    1.95827   1.96537   1.97117   1.97551   1.98263
 Alpha virt. eigenvalues --    1.98786   1.99366   1.99961   2.00311   2.01007
 Alpha virt. eigenvalues --    2.02189   2.02740   2.02795   2.03888   2.04052
 Alpha virt. eigenvalues --    2.05730   2.06104   2.06559   2.07230   2.07415
 Alpha virt. eigenvalues --    2.08244   2.08435   2.08618   2.09075   2.10464
 Alpha virt. eigenvalues --    2.11589   2.12346   2.13887   2.14929   2.15319
 Alpha virt. eigenvalues --    2.17421   2.18695   2.19193   2.20714   2.21731
 Alpha virt. eigenvalues --    2.22475   2.23152   2.23487   2.24251   2.25109
 Alpha virt. eigenvalues --    2.25599   2.26237   2.26709   2.27511   2.28007
 Alpha virt. eigenvalues --    2.29149   2.30094   2.31639   2.31847   2.33285
 Alpha virt. eigenvalues --    2.37026   2.38364   2.39129   2.40015   2.40201
 Alpha virt. eigenvalues --    2.40765   2.41288   2.41744   2.41931   2.43484
 Alpha virt. eigenvalues --    2.43871   2.44383   2.45280   2.45828   2.46462
 Alpha virt. eigenvalues --    2.47038   2.48142   2.48225   2.49021   2.49689
 Alpha virt. eigenvalues --    2.49847   2.50406   2.50843   2.51518   2.51971
 Alpha virt. eigenvalues --    2.53246   2.53490   2.54350   2.54485   2.55654
 Alpha virt. eigenvalues --    2.56149   2.56661   2.56770   2.57582   2.58526
 Alpha virt. eigenvalues --    2.58879   2.59928   2.60699   2.62047   2.63434
 Alpha virt. eigenvalues --    2.64570   2.64709   2.67069   2.67257   2.67901
 Alpha virt. eigenvalues --    2.69007   2.69562   2.70114   2.71042   2.72950
 Alpha virt. eigenvalues --    2.74534   2.74917   2.76827   2.77424   2.77974
 Alpha virt. eigenvalues --    2.78705   2.81213   2.82723   2.84473   2.85611
 Alpha virt. eigenvalues --    2.86566   2.92962   2.96909   3.01859   3.06188
 Alpha virt. eigenvalues --    3.09921   3.11931   3.12923   3.15879   3.49279
 Alpha virt. eigenvalues --    3.59479   3.86315  34.71255  34.80895  34.93354
 Alpha virt. eigenvalues --   45.95850
  Beta  occ. eigenvalues --  -77.27046 -19.24612 -19.13320 -19.11736 -14.44472
  Beta  occ. eigenvalues --  -14.42794 -10.30818 -10.30255 -10.30072 -10.28056
  Beta  occ. eigenvalues --  -10.27698 -10.27607 -10.26676 -10.26558 -10.26534
  Beta  occ. eigenvalues --  -10.25898 -10.25664 -10.24997 -10.24612 -10.23730
  Beta  occ. eigenvalues --  -10.23622 -10.23249 -10.23173 -10.22847 -10.21192
  Beta  occ. eigenvalues --  -10.20857  -6.64908  -4.78549  -4.78476  -4.78228
  Beta  occ. eigenvalues --   -3.03923  -1.87429  -1.86596  -1.86082  -1.10862
  Beta  occ. eigenvalues --   -1.01507  -0.97371  -0.89227  -0.86778  -0.85521
  Beta  occ. eigenvalues --   -0.84632  -0.84155  -0.78989  -0.78251  -0.78162
  Beta  occ. eigenvalues --   -0.75327  -0.72536  -0.71850  -0.71237  -0.71177
  Beta  occ. eigenvalues --   -0.69913  -0.67297  -0.66763  -0.64237  -0.63135
  Beta  occ. eigenvalues --   -0.57977  -0.57542  -0.54972  -0.54782  -0.54275
  Beta  occ. eigenvalues --   -0.53028  -0.51678  -0.50679  -0.49711  -0.48715
  Beta  occ. eigenvalues --   -0.47682  -0.47308  -0.46539  -0.46095  -0.45648
  Beta  occ. eigenvalues --   -0.45195  -0.44930  -0.44914  -0.44154  -0.43819
  Beta  occ. eigenvalues --   -0.43006  -0.42697  -0.42184  -0.42134  -0.41757
  Beta  occ. eigenvalues --   -0.41562  -0.40790  -0.40157  -0.39905  -0.39614
  Beta  occ. eigenvalues --   -0.39173  -0.38513  -0.38451  -0.37998  -0.37356
  Beta  occ. eigenvalues --   -0.37085  -0.36581  -0.36037  -0.35981  -0.35131
  Beta  occ. eigenvalues --   -0.34657  -0.34432  -0.34339  -0.34129  -0.33811
  Beta  occ. eigenvalues --   -0.32335  -0.30758  -0.29816  -0.28073  -0.27940
  Beta  occ. eigenvalues --   -0.26901  -0.26444  -0.25215  -0.23176  -0.22506
  Beta  occ. eigenvalues --   -0.19016  -0.16495
  Beta virt. eigenvalues --   -0.05286  -0.04631  -0.03245  -0.03009   0.00973
  Beta virt. eigenvalues --    0.03058   0.03241   0.03556   0.03999   0.04718
  Beta virt. eigenvalues --    0.05486   0.06127   0.06775   0.07116   0.07710
  Beta virt. eigenvalues --    0.08315   0.08625   0.09326   0.09529   0.10117
  Beta virt. eigenvalues --    0.10897   0.11227   0.11968   0.12158   0.12779
  Beta virt. eigenvalues --    0.12870   0.13077   0.13611   0.13829   0.13958
  Beta virt. eigenvalues --    0.14212   0.14998   0.15339   0.15530   0.15736
  Beta virt. eigenvalues --    0.16258   0.16445   0.17014   0.17411   0.17643
  Beta virt. eigenvalues --    0.17967   0.18341   0.18949   0.19478   0.19590
  Beta virt. eigenvalues --    0.19866   0.20125   0.20385   0.20789   0.21054
  Beta virt. eigenvalues --    0.21157   0.21827   0.22283   0.22443   0.22718
  Beta virt. eigenvalues --    0.23128   0.23397   0.23660   0.24272   0.24450
  Beta virt. eigenvalues --    0.25462   0.26259   0.26805   0.27054   0.27612
  Beta virt. eigenvalues --    0.27948   0.28205   0.29053   0.30217   0.30649
  Beta virt. eigenvalues --    0.31427   0.31949   0.32409   0.34085   0.35064
  Beta virt. eigenvalues --    0.35429   0.36922   0.38097   0.38727   0.40739
  Beta virt. eigenvalues --    0.41295   0.41445   0.41827   0.42924   0.43613
  Beta virt. eigenvalues --    0.43687   0.44264   0.44810   0.46005   0.46814
  Beta virt. eigenvalues --    0.47188   0.48092   0.48442   0.48844   0.49300
  Beta virt. eigenvalues --    0.49803   0.50313   0.51472   0.51973   0.52207
  Beta virt. eigenvalues --    0.53145   0.53444   0.54048   0.54661   0.54993
  Beta virt. eigenvalues --    0.55661   0.56736   0.57039   0.57243   0.57520
  Beta virt. eigenvalues --    0.58625   0.59025   0.59340   0.59384   0.60649
  Beta virt. eigenvalues --    0.60832   0.61401   0.61638   0.62285   0.62534
  Beta virt. eigenvalues --    0.62935   0.63491   0.63812   0.64243   0.64445
  Beta virt. eigenvalues --    0.64693   0.64931   0.65122   0.65407   0.65689
  Beta virt. eigenvalues --    0.66036   0.66065   0.66226   0.66793   0.67195
  Beta virt. eigenvalues --    0.67708   0.68101   0.68272   0.68567   0.68957
  Beta virt. eigenvalues --    0.69271   0.69529   0.70838   0.71060   0.71428
  Beta virt. eigenvalues --    0.71706   0.72070   0.72445   0.72751   0.72799
  Beta virt. eigenvalues --    0.73138   0.73463   0.73885   0.74334   0.74838
  Beta virt. eigenvalues --    0.75323   0.75432   0.75645   0.76237   0.76991
  Beta virt. eigenvalues --    0.77963   0.78238   0.78775   0.78955   0.79502
  Beta virt. eigenvalues --    0.79798   0.80322   0.81459   0.81845   0.82638
  Beta virt. eigenvalues --    0.83160   0.83222   0.83930   0.84547   0.85564
  Beta virt. eigenvalues --    0.86088   0.86830   0.87454   0.87986   0.88232
  Beta virt. eigenvalues --    0.88779   0.88927   0.90683   0.90822   0.91347
  Beta virt. eigenvalues --    0.92259   0.92832   0.93648   0.94219   0.94856
  Beta virt. eigenvalues --    0.96057   0.96236   0.97398   0.97604   0.98130
  Beta virt. eigenvalues --    0.98903   0.99171   0.99633   1.00765   1.01574
  Beta virt. eigenvalues --    1.02312   1.02897   1.03863   1.04644   1.05759
  Beta virt. eigenvalues --    1.06919   1.08518   1.10264   1.10765   1.11810
  Beta virt. eigenvalues --    1.12615   1.13112   1.13793   1.15632   1.16136
  Beta virt. eigenvalues --    1.16218   1.17795   1.19498   1.19732   1.21478
  Beta virt. eigenvalues --    1.22312   1.22402   1.22922   1.23909   1.24134
  Beta virt. eigenvalues --    1.25931   1.26734   1.28031   1.28942   1.29641
  Beta virt. eigenvalues --    1.30750   1.31937   1.32151   1.32661   1.33002
  Beta virt. eigenvalues --    1.33796   1.34092   1.34255   1.34686   1.35748
  Beta virt. eigenvalues --    1.36065   1.37922   1.38248   1.39053   1.39957
  Beta virt. eigenvalues --    1.40556   1.40882   1.41190   1.41979   1.42962
  Beta virt. eigenvalues --    1.43096   1.43498   1.44047   1.44207   1.44939
  Beta virt. eigenvalues --    1.45153   1.45858   1.46112   1.46469   1.47090
  Beta virt. eigenvalues --    1.47235   1.48371   1.48776   1.49197   1.50049
  Beta virt. eigenvalues --    1.50118   1.51545   1.51714   1.52074   1.52835
  Beta virt. eigenvalues --    1.53291   1.53912   1.54181   1.55790   1.56463
  Beta virt. eigenvalues --    1.56970   1.57813   1.58416   1.59648   1.60049
  Beta virt. eigenvalues --    1.61038   1.61788   1.62039   1.62331   1.63125
  Beta virt. eigenvalues --    1.63476   1.64075   1.65150   1.65329   1.65582
  Beta virt. eigenvalues --    1.66175   1.66747   1.66917   1.67270   1.67852
  Beta virt. eigenvalues --    1.68571   1.69000   1.69250   1.69847   1.70248
  Beta virt. eigenvalues --    1.70519   1.71028   1.71484   1.71678   1.72024
  Beta virt. eigenvalues --    1.72649   1.73110   1.73150   1.73607   1.74003
  Beta virt. eigenvalues --    1.74339   1.74715   1.75025   1.75926   1.76050
  Beta virt. eigenvalues --    1.76179   1.76751   1.77171   1.77738   1.78106
  Beta virt. eigenvalues --    1.79214   1.79641   1.80073   1.80637   1.81030
  Beta virt. eigenvalues --    1.81468   1.82167   1.82882   1.83272   1.83820
  Beta virt. eigenvalues --    1.84630   1.85024   1.86216   1.86368   1.86841
  Beta virt. eigenvalues --    1.87739   1.88518   1.89055   1.89488   1.90138
  Beta virt. eigenvalues --    1.90776   1.91417   1.92141   1.92340   1.94104
  Beta virt. eigenvalues --    1.95173   1.95922   1.96547   1.97199   1.97558
  Beta virt. eigenvalues --    1.98297   1.98791   1.99377   1.99973   2.00320
  Beta virt. eigenvalues --    2.01026   2.02215   2.02754   2.02815   2.03906
  Beta virt. eigenvalues --    2.04074   2.05746   2.06141   2.06562   2.07253
  Beta virt. eigenvalues --    2.07419   2.08272   2.08443   2.08638   2.09082
  Beta virt. eigenvalues --    2.10484   2.11696   2.12359   2.13895   2.14956
  Beta virt. eigenvalues --    2.15344   2.17440   2.18720   2.19260   2.20821
  Beta virt. eigenvalues --    2.21747   2.22793   2.23177   2.23548   2.24291
  Beta virt. eigenvalues --    2.25120   2.25632   2.26264   2.26721   2.27526
  Beta virt. eigenvalues --    2.28129   2.29432   2.30169   2.31685   2.32602
  Beta virt. eigenvalues --    2.33351   2.37081   2.38366   2.39136   2.40019
  Beta virt. eigenvalues --    2.40216   2.40793   2.41317   2.41768   2.41962
  Beta virt. eigenvalues --    2.43520   2.43891   2.44395   2.45311   2.45831
  Beta virt. eigenvalues --    2.46465   2.47069   2.48158   2.48239   2.49047
  Beta virt. eigenvalues --    2.49715   2.49899   2.50464   2.50912   2.51555
  Beta virt. eigenvalues --    2.51986   2.53313   2.53496   2.54376   2.54540
  Beta virt. eigenvalues --    2.55682   2.56302   2.56707   2.56814   2.57642
  Beta virt. eigenvalues --    2.58540   2.58891   2.60013   2.60787   2.62335
  Beta virt. eigenvalues --    2.63465   2.64642   2.65001   2.67221   2.67904
  Beta virt. eigenvalues --    2.68103   2.69407   2.69795   2.70795   2.73449
  Beta virt. eigenvalues --    2.74546   2.74943   2.75901   2.77814   2.78437
  Beta virt. eigenvalues --    2.80925   2.82218   2.82728   2.83193   2.85362
  Beta virt. eigenvalues --    2.86552   2.87415   2.93551   2.97658   3.01917
  Beta virt. eigenvalues --    3.06197   3.10102   3.11955   3.13393   3.17173
  Beta virt. eigenvalues --    3.49276   3.59455   3.86318  34.71581  34.81265
  Beta virt. eigenvalues --   34.93486  45.96088
          Condensed to atoms (all electrons):
          Atomic-Atomic Spin Densities.
 Mulliken charges and spin densities:
               1          2
     1  N   -0.298942  -0.007439
     2  C    0.026110   0.000487
     3  C    0.089780  -0.000536
     4  C   -0.033288   0.000206
     5  C    0.089585  -0.001588
     6  C   -0.040213   0.000012
[...]
 93,-0.00000264,-0.00000132,0.00000234,-0.00000804,0.00002233,-0.000044
 34,-0.00027916,-0.00013010,0.00003986,-0.00000036,-0.00003015,-0.00002
 158,0.00000718,-0.00003464,-0.00000546,0.00001278,0.00007547,-0.000032
 81,0.00008490,0.00009748,-0.00003380,0.00070229,0.00052638,-0.00080665
 ,0.00010436,-0.00003226,-0.00001605,0.00011410,0.00044457,0.00102631,0
 .00001541,-0.00003038,-0.00004205,0.00001641,-0.00012862,0.00008795,0.
 00000431,-0.00002432,-0.00001953,0.02227531,0.00833394,-0.00356242,-0.
 00005108,-0.00000636,0.00003083,0.00003323,-0.00000827,0.00004900,-0.0
 0000014,0.00011914,0.00005480,-0.07690479,-0.06956957,0.01788736,0.002
 45874,-0.00388808,-0.00205351,-0.00008035,0.00159305,-0.00024758,-0.00
 161608,-0.00164977,-0.00213365,-0.00029731,-0.00051855,0.00157120,-0.0
 0002067,0.00001381,0.00001403,0.00000043,0.00000843,0.00000928,-0.0000
 1315,-0.00000724,-0.00001942,-0.00003160,0.00000024,0.00000590,-0.0000
 0827,-0.00000160,0.00001944,0.00002979,0.00000327,-0.00000247,0.000000
 62,-0.00009217,-0.00005938,-0.00008621,-0.00017937,0.00034056,-0.00002
 198,-0.00002460,-0.00001204,0.00000555,-0.00000064,0.00000598,0.000010
 24,-0.00000349,-0.00000587,0.00000394,-0.00000208,0.00000296,0.0000116
 4,-0.00001085,-0.00000286,0.00000257,-0.00000067,-0.00000131,-0.000016
 39,0.00001957,0.00001839,0.00001533,-0.00000166,-0.00001972,0.00001797
 ,-0.00002021,-0.00000732,-0.00001405,0.00000278,-0.00000206,-0.0000126
 2,-0.00002079,-0.00001119,-0.00001272,0.00005086,-0.00001829,-0.000034
 66,-0.00001885,0.00001863,-0.00002900,-0.00002590,0.00005803,-0.000015
 20,-0.00001684,-0.00001803,0.00164690,0.00062899,-0.00058251,-0.000051
 38,-0.00021776,0.00013962,0.00006644,0.00009167,-0.00029548,-0.0002360
 9,0.00006253,-0.00011320,-0.00007703,-0.00038284,0.00015063,-0.0000447
 7,-0.00006624,0.00001124,-0.00631523,-0.00315336,0.00226423,0.08152236
 ,0.07459324,-0.00018039,-0.00017570,-0.00028477,-0.00076970,0.00023183
 ,0.00009365,0.00064888,0.00040488,-0.00061166,-0.00000487,-0.00016822,
 -0.00000135,0.00010224,0.00000587,-0.00005486,-0.00010049,0.00011143,-
 0.00000261,-0.00003674,-0.00003768,0.00003353,0.00001838,-0.00002951,0
 .00000637,0.00000970,-0.00000689,0.00001470,-0.00000258,-0.00005621,0.
 00004960,-0.00000934,0.00004916,-0.00021665,0.00001550,-0.00000404,-0.
 00002476,0.00004570,0.00001383,0.00000184,-0.00000129,0.00002700,0.000
 01431,-0.00013884,-0.00000754,-0.00002303,0.00167804,-0.00004890,-0.00
 074120,-0.00008430,-0.00013778,0.00017553,0.00026567,0.00064646,-0.000
 71652,-0.00002091,0.00000026,-0.00002536,-0.00004853,-0.00013650,0.000
 01472,-0.00002115,-0.00002796,0.00007593,0.01151440,0.00488884,-0.0046
 1687,-0.00004361,0.00001712,0.00001158,0.00003080,0.00001490,0.0000954
 6,0.00000560,0.00012863,0.00006688,0.05304845,0.01681641,-0.05487930,0
 .00110406,-0.00296501,-0.00106871,-0.00066807,0.00024846,0.00004641,-0
 .00013560,-0.00046420,0.00321055,0.00000076,-0.00001413,-0.00194627,-0
 .00000810,0.00000401,-0.00000891,0.00000286,-0.00000420,0.00000968,0.0
 0001164,0.00000239,-0.00000599,-0.00001056,0.00000790,0.00000135,0.000
 00835,0.00002230,-0.00000154,0.00001919,-0.00000193,-0.00000828,-0.000
 05060,0.00024940,0.00015722,-0.00003886,-0.00004410,0.00024314,-0.0000
 2964,-0.00002910,0.00004663,0.00001863,-0.00000564,-0.00000142,0.00001
 648,0.00001028,-0.00000572,0.00000715,0.00000027,0.00000632,-0.0000052
 1,0.00000064,-0.00000068,0.00000856,0.00000568,-0.00000407,-0.00002361
 ,0.00001352,0.00002362,0.00001453,-0.00000558,-0.00001854,0.00004292,-
 0.00003539,-0.00003496,-0.00002755,0.00001371,-0.00002384,0.00001963,-
 0.00000798,0.00000395,-0.00005941,0.00002921,-0.00002671,-0.00004470,-
 0.00002424,0.00001611,-0.00004534,-0.00001691,0.00004245,-0.00000747,-
 0.00000260,-0.00001720,0.00117235,0.00025431,0.00035316,0.00017849,0.0
 0017371,0.00026837,-0.00035439,-0.00012147,0.00021003,0.00002295,-0.00
 007460,-0.00015561,0.00001697,-0.00001209,0.00039489,-0.00015354,-0.00
 014326,-0.00001406,-0.02526303,-0.00765241,0.00616369,-0.05947867,-0.0
 1632818,0.05791423,-0.00031718,-0.00046943,0.00034342,-0.00018738,-0.0
 0007354,0.00010214,0.00005017,-0.00020329,-0.00107292,0.00003273,0.000
 08986,-0.00005453,-0.00025630,0.00016983,0.00012642,0.00008649,0.00028
 851,-0.00024627,-0.00002603,-0.00007366,-0.00001456,0.00000747,-0.0000
 0207,-0.00000727,0.00000958,-0.00001169,-0.00001046,0.00001883,-0.0000
 2626,0.00001564,0.00039717,-0.00003715,-0.00032835,0.00000051,0.000040
 07,-0.00001229,0.00000244,0.00002380,-0.00000625,0.00004547,0.00001042
 ,0.00000505,-0.00017633,-0.00005460,0.00000730,0.00013285,-0.00025180,
 -0.00005135,-0.00007989,-0.00009735,0.00025966,-0.00009304,-0.00031470
 ,-0.00064540,-0.00002078,0.00000114,0.00001666,-0.00006166,0.00003808,
 -0.00006601,-0.00000832,0.00000897,0.00004399,-0.00180437,0.01148185,-
 0.01117485,0.00001542,-0.00003181,0.00001644,-0.00000475,0.00000009,0.
 00005148,0.00005132,0.00002159,0.00002755,-0.04510048,0.00532204,-0.00
 277727,0.00101093,0.00062711,-0.00123033,-0.00213263,0.00289023,0.0016
 8373,0.00013608,0.00004829,0.00141876,-0.00012702,-0.00016058,-0.00097
 906,0.00001214,-0.00000782,-0.00001865,0.00000297,-0.00000475,-0.00000
 558,0.00001104,0.00001091,0.00000081,0.00000996,-0.00000243,-0.0000022
 0,0.00000561,0.00000456,-0.00000475,-0.00000550,-0.00000290,-0.0000028
 9,-0.00000105,0.00017185,0.00007998,0.00002415,0.00010432,-0.00010955,
 -0.00000204,0.00000014,0.00000514,0.00000253,-0.00000230,-0.00000210,0
 .00000006,0.00000723,0.00000039,-0.00000119,0.00000097,0.00000144,-0.0
 0000946,0.00000434,0.00000196,0.00000329,0.00000442,-0.00000098,-0.000
 00896,-0.00000303,-0.00000099,0.00001000,-0.00000029,0.00000475,-0.000
 00923,-0.00000710,-0.00001011,-0.00000266,0.00000110,0.00001735,-0.000
 03195,-0.00003712,-0.00001672,0.00003490,0.00001714,-0.00005148,-0.000
 01415,-0.00001326,-0.00001092,-0.00003905,0.00000214,0.00000791,-0.000
 00029,-0.00000702,0.00000173,0.00023986,-0.00027039,-0.00000951,-0.000
 11216,0.00003543,-0.00015490,-0.00018720,-0.00010230,0.00058000,0.0002
 8717,0.00114112,-0.00060273,0.00005083,0.00023380,-0.00005203,0.000035
 94,-0.00013182,0.00041946,-0.00105467,0.01136276,-0.00769819,0.0029298
 3,-0.02261856,0.01784233,0.04622027,-0.00006694,-0.00051864,0.00041446
 ,-0.00020126,-0.00012850,0.00006402,-0.00025543,0.00091095,-0.00016839
 ,0.00019273,0.00005134,-0.00020057,-0.00031671,0.00016340,0.00009554,0
 .00041515,-0.00011689,0.00031922,-0.00000658,-0.00007339,-0.00000041,0
 .00000621,0.00000096,0.00000333,0.00001663,-0.00001811,0.00000798,-0.0
 0002303,0.00000522,0.00000456,-0.00006599,0.00007152,0.00004517,-0.000
 02846,0.00001538,0.00001372,0.00000574,0.00002357,-0.00000404,0.000019
 72,0.00000635,0.00000248,0.00006637,0.00003396,-0.00000063,0.00077208,
 -0.00155730,0.00174838,0.00018407,0.00020481,-0.00041573,-0.00026471,-
 0.00003108,-0.00069240,-0.00001126,-0.00000214,0.00001996,-0.00003353,
 0.00003622,-0.00019501,-0.00002036,0.00000238,0.00003584,-0.00126030,-
 0.01706890,0.01482785,0.00003115,0.00003434,-0.00003582,0.00002105,0.0
 0009392,0.00006858,-0.00003072,-0.00001514,0.00000594,0.00582306,-0.21
 776850,0.13056517,-0.00157487,0.00081649,0.00051735,0.00344819,-0.0031
 7623,-0.00377044,0.00031350,-0.00008026,0.00105057,-0.00015352,0.00004
 330,-0.00071691,0.00000257,-0.00001078,-0.00001795,0.00000410,-0.00000
 533,-0.00000788,0.00000440,0.00000652,0.00000141,0.00000809,-0.0000040
 6,-0.00000327,0.00000614,0.00000780,-0.00000347,-0.00000682,-0.0000033
 0,0.00000033,-0.00003327,0.00027039,0.00005961,0.00004161,0.00017223,-
 0.00015406,-0.00000258,-0.00000473,0.00000524,0.00000003,-0.00000162,-
 0.00000164,0.00000460,0.00000707,-0.00000210,-0.00000260,0.00000092,0.
 00000090,-0.00000904,0.00000350,0.00000289,0.00000494,0.00000463,-0.00
 000118,-0.00001450,0.00000484,-0.00000436,-0.00001397,-0.00001090,-0.0
 0003544,0.00001835,0.00000415,-0.00000007,-0.00003306,0.00002020,-0.00
 007357,0.00005459,0.00006845,0.00004033,-0.00013270,-0.00002779,0.0000
 3428,-0.00000072,0.00002394,-0.00000296,0.00001883,-0.00001594,0.00001
 340,0.00000688,0.00001185,-0.00006051,-0.00022126,0.00017973,-0.000274
 49,0.00009423,-0.00002328,-0.00005315,0.00068780,0.00048026,-0.0004229
 4,0.00023855,-0.00108145,0.00141036,-0.00004116,0.00027623,-0.00010080
 ,-0.00002559,0.00029341,-0.00007723,-0.00038107,0.00708817,-0.00598300
 ,0.00185355,-0.00632355,0.00441260,-0.00916126,0.23661028,-0.00009384,
 0.00007623,-0.00034960,0.00018446,-0.00001440,0.00002815,-0.00135711,-
 0.00005274,-0.00107655,0.00003257,0.00007228,-0.00000127,0.00005522,-0
 .00007569,0.00003762,-0.00028336,0.00002460,-0.00048020,0.00000236,0.0
 0002184,-0.00002356,0.00001420,0.00000144,0.00000282,0.00002004,-0.000
 01974,0.00000187,0.00000498,0.00003961,0.00001341,-0.00032728,-0.00056
 178,-0.00097941,0.00003171,-0.00001189,0.00000834,0.00001211,-0.000006
 96,0.00000109,-0.00000530,0.00002277,-0.00000305,0.00000920,-0.0001095
 1,-0.00007575,-0.00024261,-0.00054904,0.00050303,0.00016234,0.00004648
 ,-0.00046923,0.00002846,0.00003385,0.00010224,0.00000152,-0.00000032,-
 0.00002248,0.00020897,0.00004249,0.00003207,-0.00001037,-0.00001148,-0
 .00000305,0.00015855,-0.01154232,0.00779004,-0.00007812,0.00003693,0.0
 0002106,-0.00002193,0.00000688,0.00003348,0.00000754,0.00002120,-0.000
 00146,-0.00310478,0.13295677,-0.14483311,-0.00039876,-0.00037290,0.000
 69820,0.00104926,-0.00172143,-0.00071209,-0.00005262,0.00002741,-0.000
 49717,0.00007593,0.00005560,0.00036590,-0.00000713,0.00000605,0.000004
 87,0.00000135,0.00000188,0.00000625,-0.00000569,-0.00000288,-0.0000021
 4,-0.00000773,0.00000198,0.00000386,-0.00000162,0.00000196,0.00000060,
 0.00001046,-0.00000004,-0.00000049,0.00001090,-0.00003486,-0.00001723,
 0.00003323,-0.00000376,0.00010098,-0.00000796,-0.00000662,0.00000087,0
 .00000218,0.00000018,0.00000338,0.00000134,-0.00000010,-0.00000220,0.0
 0000282,-0.00000019,0.00000288,0.00000228,-0.00000278,-0.00000279,0.00
 000092,0.00000024,-0.00000181,0.00000459,0.00002401,0.00003162,0.00000
 333,-0.00001077,-0.00000317,0.00000181,-0.00000576,-0.00000157,-0.0000
 1040,0.00001178,0.00000447,0.00000062,-0.00000099,0.00000394,-0.000003
 22,0.00001018,0.00001853,-0.00001256,0.00000680,0.00000552,-0.00000306
 ,-0.00000080,-0.00000011,0.00000457,0.00000072,-0.00000712,-0.00020806
 ,-0.00017018,0.00002194,-0.00003261,0.00020213,-0.00020597,-0.00011926
 ,0.00019420,0.00009812,0.00033160,-0.00045666,0.00085655,0.00000511,-0
 .00005670,-0.00015047,0.00036772,-0.00002661,0.00043251,0.00087935,0.0
 2111496,-0.01479013,-0.00168578,0.00306866,-0.00414366,0.00435825,-0.1
 4229968,0.15763556,0.00035715,-0.00015197,0.00044125,0.00028343,-0.000
 05784,-0.00005467,-0.00023905,0.00048209,0.00015611,-0.00004224,-0.000
 08261,0.00000164,-0.00000900,0.00009463,-0.00003947,-0.00006343,-0.000
 00006,0.00007780,0.00010574,0.00032033,0.00002648,-0.00000444,0.000025
 95,0.00000567,-0.00000390,-0.00000493,0.00000940,0.00000526,0.00000919
 ,0.00001000,-0.00126927,-0.00073980,0.00002064,0.00004874,-0.00055863,
 -0.00008055,0.00000022,-0.00008120,-0.00001558,-0.00010606,-0.00009386
 ,-0.00008713,0.00051314,-0.00005526,-0.00046944,0.00101727,-0.00154264
 ,-0.00054325,-0.00015229,-0.00031954,-0.00039974,-0.00035843,-0.000693
 16,-0.00129250,-0.00046798,0.00133193,0.00071048,-0.00012922,-0.000844
 16,-0.00074906,-0.00018054,-0.00002727,0.00001656,-0.00032167,0.000238
 38,0.00002363,-0.00163669,0.00011514,-0.00009002,0.00018726,0.00031896
 ,0.00029944,0.00009975,0.00023107,0.00041131,0.00011780,-0.00004484,0.
 00011843,-0.00000837,-0.00004859,-0.00000315,0.00001626,-0.00001309,-0
 .00000984,0.00190697,0.00084308,0.00040624,-0.00055282,-0.00030675,-0.
 00024473,0.00056978,0.00054169,0.00028945,-0.00005398,-0.00063972,-0.0
 0030365,-0.00152580,-0.00099822,0.00038127,0.00003037,0.00003446,-0.00
 004940,-0.00000731,0.00009111,0.00017318,0.00000088,-0.00004324,0.0000
 2130,-0.00254161,-0.00012743,0.00054070,-0.00576601,-0.00220148,-0.002
 64321,0.00004884,-0.00008118,-0.00004377,-0.00008803,-0.00007692,-0.00
 001962,0.00003292,-0.00000522,-0.00009751,-0.00007997,0.00003535,-0.00
 000995,0.00031032,-0.00011758,-0.00003255,-0.00003018,0.00002930,0.000
 00353,0.00103251,-0.00004653,0.00026951,-0.00208732,-0.00087430,0.0016
 1789,-0.00065008,0.00164149,-0.00092123,-0.00008344,0.00008242,-0.0000
 3087,-0.00000601,-0.00000802,-0.00004334,0.00017262,-0.00006996,0.0001
 6803,-0.00011152,-0.00002289,0.00003980,0.00019365,0.00011914,-0.00003
 216,0.00000955,-0.00004964,-0.00005873,-0.00005978,0.00001845,-0.00003
 283,-0.00001353,0.00002353,0.00002580,0.00002003,-0.00000378,-0.000014
 09,-0.00004106,0.00000899,-0.00004298,0.00003106,-0.00003594,-0.000010
 40,0.00000683,0.00002506,0.00002305,-0.00003681,0.00005315,0.00001902,
 -0.00001660,0.00001455,-0.00002410,-0.00000229,0.00002829,-0.00000072,
 0.01162839,-0.00011405,-0.00059801,-0.00078273,-0.00041889,0.00010814,
 0.00037079,0.00051785,0.00071100,0.00026518,0.00012154,0.00008926,-0.0
 0011990,-0.00014028,-0.00000895,0.00003316,0.00003321,-0.00008558,0.00
 000667,-0.00001914,-0.00017832,0.00002679,0.00001687,-0.00002408,0.000
 00711,0.00000044,-0.00000596,-0.00000498,0.00000019,-0.00003513,0.0000
 0876,-0.00000554,0.00007954,0.00018923,-0.00063753,0.00020551,-0.00017
 275,0.00001654,0.00002072,-0.00000081,0.00003112,0.00002812,0.00004406
 ,-0.00000552,-0.00030132,-0.00031550,-0.00020516,0.00000767,-0.0006881
 5,-0.00002516,0.00010043,-0.00006284,0.00089939,-0.00119588,-0.0053455
 8,-0.00028424,-0.00034770,0.00027058,-0.00012775,-0.00044865,0.0001325
 4,0.00013258,0.00017237,-0.00001276,0.00001964,0.00000718,0.00002187,0
 .00182127,0.00040770,-0.00097640,0.00010829,0.00002695,0.00006489,-0.0
 0008354,0.00000117,-0.00008112,0.00000293,-0.00003483,-0.00000557,-0.0
 0000365,0.00000380,0.00000211,0.00000146,0.00000040,0.00002370,-0.0005
 1707,-0.00111855,0.00208489,0.00009943,0.00031710,0.00046257,0.0003245
 7,-0.00025247,-0.00029684,0.00000184,0.00009509,0.00009160,0.00018697,
 0.00056663,-0.00011749,0.00005383,-0.00000131,0.00000500,-0.00009145,-
 0.00002845,-0.00005724,0.00000203,-0.00003677,-0.00001562,-0.00050596,
 0.00047840,-0.00097658,-0.00652182,-0.48206613,-0.12376021,-0.00007579
 ,0.00000450,0.00030480,-0.00003063,0.00001482,0.00000611,0.00000975,-0
 .00001629,-0.00000776,0.00002273,0.00000336,-0.00000240,-0.00007772,0.
 00003456,0.00001424,-0.00006010,-0.00001082,0.00002046,0.00033514,-0.0
 0030315,0.00019043,-0.00034230,-0.00013102,0.00048322,0.00125232,-0.00
 042040,0.00004945,-0.00000897,0.00002046,-0.00000039,0.00000133,0.0000
 0462,0.00001734,0.00001361,-0.00002332,0.00004520,-0.00001378,0.000002
 88,0.00000587,-0.00001204,-0.00001910,0.00002569,0.00002002,-0.0000174
 0,0.00000101,-0.00000325,0.00000278,-0.00000074,0.00000533,0.00000313,
 0.00000165,0.00000497,0.00000464,-0.00000410,0.00001180,0.00000822,-0.
 00000413,-0.00002498,-0.00000294,-0.00001515,0.00000033,-0.00000006,0.
 00000278,-0.00002196,0.00001118,0.00000504,-0.00001771,0.00002556,-0.0
 0001507,0.00001618,0.00001911,-0.00000257,0.00431048,0.48412557,0.0000
 8410,-0.00039505,-0.00098145,-0.00047575,0.00033139,0.00003475,0.00017
 929,0.00030564,-0.00033086,-0.00001444,-0.00022205,0.00008268,0.000003
 74,0.00013426,-0.00004544,0.00015818,-0.00012572,0.00001512,-0.0000503
 7,0.00000752,-0.00004950,-0.00001253,0.00000672,0.00001428,-0.00000239
 ,0.00000470,-0.00000568,0.00000852,0.00001551,-0.00000337,0.00028422,0
 .00018498,0.00021218,-0.00011507,-0.00035402,-0.00008533,-0.00003976,0
 .00004556,0.00000199,0.00001793,-0.00000695,-0.00005421,-0.00057467,-0
 .00009079,-0.00000237,-0.00076722,-0.00069113,0.00019745,0.00006724,-0
 .00002617,0.00011891,-0.00029171,-0.02250788,-0.01797556,-0.00005118,-
 0.00039925,0.00011625,-0.00010942,0.00057482,-0.00004430,0.00000758,0.
 00008433,-0.00020698,0.00014734,0.00001752,-0.00012450,0.00023788,-0.0
 0129425,0.00018566,-0.00009973,-0.00016069,-0.00020040,0.00007351,-0.0
 0015779,-0.00010825,-0.00000786,0.00000785,0.00005524,0.00000266,0.000
 01446,0.00009653,0.00000569,0.00004100,-0.00002367,-0.00003243,0.00644
 143,-0.00141483,0.00006348,-0.00238326,-0.00026140,0.00033176,0.000186
 42,-0.00008358,0.00001843,0.00021429,0.00006227,0.00018062,0.00000321,
 0.00044537,0.00002568,-0.00000758,0.00003072,0.00013375,-0.00005251,0.
 00002068,-0.00006329,-0.00000248,0.00005399,0.00097219,-0.00130753,0.0
 0586092,-0.00330896,-0.10827238,-0.04634993,0.00008897,0.00012274,-0.0
 0025931,-0.00001414,0.00002820,-0.00000509,-0.00004371,-0.00000649,0.0
 0002867,-0.00006267,0.00001832,-0.00004986,-0.00006423,0.00002339,-0.0
 0000403,-0.00001091,-0.00000983,0.00001022,0.00022033,0.00014670,-0.00
 020980,0.00116433,0.00054641,-0.00004979,-0.00055079,0.00037948,0.0005
 5099,0.00005641,-0.00005451,0.00001614,-0.00002009,0.00002933,0.000001
 04,-0.00004558,0.00004733,-0.00006339,0.00008283,0.00001776,-0.0000384
 6,-0.00003168,0.00000356,0.00000056,-0.00004019,0.00004643,0.00002761,
 0.00002433,-0.00001514,0.00000014,0.00003982,0.00001375,-0.00000048,-0
 .00001835,0.00000305,-0.00000566,0.00000835,-0.00001136,0.00001034,-0.
 00001070,0.00000870,-0.00000720,0.00000367,-0.00000695,0.00002042,0.00
 004496,-0.00000203,0.00000856,0.00001766,-0.00004216,-0.00008078,-0.00
 000828,-0.00001140,-0.00001495,0.00218265,0.12856061,0.06086076\\0.000
 00162,0.00000236,0.00000029,-0.00000014,-0.00000165,-0.00000032,-0.000
 00168,-0.00000242,0.00000240,-0.00000104,0.00000293,-0.00000243,-0.000
 00061,-0.00000339,-0.00000207,-0.00000439,0.00000170,-0.00000235,-0.00
 000147,-0.00000954,0.00000036,-0.00000094,-0.00000138,-0.00000209,-0.0
 0000175,-0.00000062,-0.00000179,-0.00000026,-0.00000096,-0.00000135,0.
 00000896,0.00000111,-0.00000488,-0.00000390,0.00000276,0.00000230,-0.0
 0000172,-0.00000095,0.00000033,-0.00000223,0.00000269,-0.00000193,-0.0
 0000102,-0.00000126,-0.00000087,-0.00000139,-0.00000017,-0.00000139,-0
 .00000289,0.00000110,0.00000014,0.00001212,0.00001050,-0.00000188,0.00
 000560,0.00000027,0.00000740,0.00000157,-0.00000549,0.00000613,0.00000
 028,-0.00000279,-0.00000222,-0.00000556,-0.00000580,0.00000453,-0.0000
 0340,0.00000270,0.00000136,-0.00000228,0.00000216,-0.00000180,0.000002
 27,0.00000413,-0.00000081,0.00000110,-0.00000003,-0.00000340,0.0000048
 0,0.00000262,-0.00000354,0.00000050,0.00000470,-0.00000295,-0.00001139
 ,-0.00000476,0.00000014,0.00000668,0.00000345,0.00000273,-0.00000056,-
 0.00000467,-0.00000113,-0.00000171,-0.00000203,0.00000046,-0.00000002,
 -0.00000029,-0.00000149,-0.00000083,-0.00000067,-0.00000139,-0.0000010
 6,0.00000366,0.00000330,-0.00000066,-0.00000101,0.00000004,-0.00000013
 ,-0.00000132,-0.00000016,0.00000016,-0.00000221,-0.00000064,0.00000070
 ,-0.00000174,0.00000089,0.00000167,-0.00000211,0.00000034,0.00000202,-
 0.00000017,0.00000164,0.00000074,-0.00000189,0.00000014,-0.00000175,-0
 .00000158,0.00000015,0.00000070,-0.00000186,0.00000097,0.00000061,0.00
 000029,-0.00000010,0.00000105,-0.00000198,-0.00000076,0.00000219,-0.00
 000053,0.00000164,0.00000080,0.00000088,0.00000174,0.00000123,0.000000
 70,0.00000190,0.00000171,0.00000199,0.00000202,0.00000027,-0.00000003,
 0.00000046,-0.00000008,0.00000083,-0.00000040,-0.00000068,-0.00000026,
 -0.00000061,-0.00000067,0.00000120,0.00000074,-0.00000130,0.00000222,0
 .00000023,-0.00000108,0.00000153,-0.00000076,0.00000004,0.00000169,0.0
 0000013,0.00000149,0.00000083,0.00000125,-0.00000045,0.00000180,0.0000
 0014,-0.00000064,0.00000271,-0.00000031,-0.00000040,0.00000220,-0.0000
 0036,-0.00000120,0.00000184,-0.00000046,0.00000037,-0.00000405,0.00000
 035\\\@


 The impersonal hand of government can
 never replace the helping hand of a neighbor.
                        -- Hubert H. Humphrey
 Job cpu time:       1 days 13 hours  9 minutes  3.0 seconds.
 Elapsed time:       0 days  2 hours 19 minutes 25.1 seconds.
 File lengths (MBytes):  RWF=   4185 Int=      0 D2E=      0 Chk=     41 Scr=      1
 Normal termination of Gaussian 16 at Thu Feb 13 22:37:55 2020.
