 Entering Gaussian System, Link 0=g16
 Initial command:
 /cluster/chemistry/gaussian/g16/l1.exe "/scratch/js1212.745063/scratch/Gau-13547.inp" -scrdir="/scratch/js1212.745063/scratch/"
 Entering Link 1 = /cluster/chemistry/gaussian/g16/l1.exe PID=     13548.
  
 Copyright (c) 1988,1990,1992,1993,1995,1998,2003,2009,2016,
            Gaussian, Inc.  All Rights Reserved.
  
 This is part of the Gaussian(R) 16 program.  It is based on
 the Gaussian(R) 09 system (copyright 2009, Gaussian, Inc.),
 the Gaussian(R) 03 system (copyright 2003, Gaussian, Inc.),
 the Gaussian(R) 98 system (copyright 1998, Gaussian, Inc.),
 the Gaussian(R) 94 system (copyright 1995, Gaussian, Inc.),
 the Gaussian 92(TM) system (copyright 1992, Gaussian, Inc.),
 the Gaussian 90(TM) system (copyright 1990, Gaussian, Inc.),
 the Gaussian 88(TM) system (copyright 1988, Gaussian, Inc.),
 the Gaussian 86(TM) system (copyright 1986, Carnegie Mellon
 University), and the Gaussian 82(TM) system (copyright 1983,
 Carnegie Mellon University). Gaussian is a federally registered
 trademark of Gaussian, Inc.
  
 This software contains proprietary and confidential information,
 including trade secrets, belonging to Gaussian, Inc.
  
 This software is provided under written license and may be
 used, copied, transmitted, or stored only in accord with that
 written license.
  
 The following legend is applicable only to US Government
 contracts under FAR:
  
                    RESTRICTED RIGHTS LEGEND
  
 Use, reproduction and disclosure by the US Government is
 subject to restrictions as set forth in subparagraphs (a)
 and (c) of the Commercial Computer Software - Restricted
 Rights clause in FAR 52.227-19.
  
 Gaussian, Inc.
 340 Quinnipiac St., Bldg. 40, Wallingford CT 06492
  
  
 ---------------------------------------------------------------
 Warning -- This program may not be used in any manner that
 competes with the business of Gaussian, Inc. or will provide
 assistance to any competitor of Gaussian, Inc.  The licensee
 of this program is prohibited from giving any competitor of
 Gaussian, Inc. access to this program.  By using this program,
 the user acknowledges that Gaussian, Inc. is engaged in the
 business of creating and licensing software in the field of
 computational chemistry and represents and warrants to the
 licensee that it is not a competitor of Gaussian, Inc. and that
 it will not use this program in any manner prohibited above.
 ---------------------------------------------------------------
  

 Cite this work as:
 Gaussian 16, Revision A.03,
 M. J. Frisch, G. W. Trucks, H. B. Schlegel, G. E. Scuseria, 
 M. A. Robb, J. R. Cheeseman, G. Scalmani, V. Barone, 
 G. A. Petersson, H. Nakatsuji, X. Li, M. Caricato, A. V. Marenich, 
 J. Bloino, B. G. Janesko, R. Gomperts, B. Mennucci, H. P. Hratchian, 
 J. V. Ortiz, A. F. Izmaylov, J. L. Sonnenberg, D. Williams-Young, 
 F. Ding, F. Lipparini, F. Egidi, J. Goings, B. Peng, A. Petrone, 
 T. Henderson, D. Ranasinghe, V. G. Zakrzewski, J. Gao, N. Rega, 
 G. Zheng, W. Liang, M. Hada, M. Ehara, K. Toyota, R. Fukuda, 
 J. Hasegawa, M. Ishida, T. Nakajima, Y. Honda, O. Kitao, H. Nakai, 
 T. Vreven, K. Throssell, J. A. Montgomery, Jr., J. E. Peralta, 
 F. Ogliaro, M. J. Bearpark, J. J. Heyd, E. N. Brothers, K. N. Kudin, 
 V. N. Staroverov, T. A. Keith, R. Kobayashi, J. Normand, 
 K. Raghavachari, A. P. Rendell, J. C. Burant, S. S. Iyengar, 
 J. Tomasi, M. Cossi, J. M. Millam, M. Klene, C. Adamo, R. Cammi, 
 J. W. Ochterski, R. L. Martin, K. Morokuma, O. Farkas, 
 J. B. Foresman, and D. J. Fox, Gaussian, Inc., Wallingford CT, 2016.
 
 ******************************************
 Gaussian 16:  ES64L-G16RevA.03 25-Dec-2016
                27-May-2020 
 ******************************************
 %rwf=/scratch/js1212.745063/G-Mono-D-0-GP-TD-SMD.rwf
 %nosave
 %nprocshared=16
 Will use up to   16 processors via shared memory.
 %mem=3000MB
 %oldchk=/data/js1212/200527_g16/G-Mono-D-0-GPOF.chk
 %chk=/scratch/js1212.745063/G-Mono-D-0-GP-TD-SMD.chk
 Copying data from "/data/js1212/200527_g16/G-Mono-D-0-GPOF.chk" to current chk file "/scratch/js1212.745063/G-Mono-D-0-GP-TD-SMD.chk"
 IOpt=  2 FromEx=T IUOpen= 4 IOptOp= 5 NList=   0 IFRang= 0 IUIn= 4 IUOut= 2.
 ----------------------------------------------------------------------
 # genecp pbe1pbe EmpiricalDispersion=GD3BJ scrf=(SMD,solvent=water) td
 =nstates=25 geom=allcheck
 ----------------------------------------------------------------------
 1/29=7,38=1,172=1/1;
 2/12=2,40=1/2;
 3/5=7,11=9,14=-4,16=1,17=8,25=1,30=1,70=32201,72=1,74=-13,124=41/1,2,3,8;
 4//1;
 5/5=2,38=5,53=1/2;
 8/6=1,10=1,108=25/1;
 9/41=25,42=1,70=2/14;
 6/7=2,8=2,9=2,10=2/1;
 99/5=1,9=1/99;
 Structure from the checkpoint file:  "/scratch/js1212.745063/G-Mono-D-0-GP-TD-SMD.chk"
 -------------------
 Title Card Required
 -------------------
 Charge =  0 Multiplicity = 2
 Redundant internal coordinates found in file.  (old form).
 H,0,-0.1736665368,1.6212913294,3.8251032107
 C,0,0.8226035548,1.1808631395,3.6724204595
 H,0,1.2919710344,1.0803838937,4.6633632951
 H,0,1.4118012445,1.878128695,3.0539193706
 H,0,1.4648942869,1.5337265453,-2.0640032362
 O,0,2.1173850954,2.1204441716,1.049070263
 H,0,3.371580163,3.6308677758,-1.4037617339
 O,0,1.1258488901,-0.0509473707,-0.0626522666
 C,0,0.6657456286,-0.1428323151,2.9566196692
 H,0,1.4821407847,1.2137439311,-3.8194046682
 H,0,0.1010162618,-0.8663678309,3.5755939634
 C,0,2.1119047739,1.4634811984,-2.9494162405
 H,0,3.8588944633,3.2610885992,0.2513084151
 H,0,2.5672385251,2.4466481033,-3.139769547
 H,0,0.1184350752,-0.0033175296,2.013693169
 C,0,4.2466049699,3.46668403,-0.7580252864
 H,0,4.8351036709,4.3992503882,-0.7449736818
 H,0,0.8925310993,-1.7873557054,1.1194380037
 Ru,0,2.9311628615,0.3984527367,0.838398525
 H,0,1.7855671225,-0.9387538795,-1.6752831681
 N,0,1.9522490661,-0.7538678831,2.5499835197
 C,0,1.6666753148,-2.0326292386,1.867429041
 C,0,3.1573334946,0.3644287061,-2.7550410918
 H,0,1.8181860496,-1.1556143472,-3.4560983308
 H,0,4.7644568781,2.9090050743,-3.37377677
 C,0,2.4388908661,-0.9776357959,-2.5615438805
 C,0,5.1313241463,2.3321704208,-1.2874811421
 P,0,4.0853700783,0.7441666408,-1.1400521245
 H,0,1.2859063726,-2.7978376249,2.5634329743
 C,0,5.5993471974,2.6737870269,-2.7012556139
 H,0,3.1791714662,0.0416059,4.0391079515
 H,0,1.4885129169,-1.3121432538,5.3363189165
 H,0,6.2311691571,3.5756579395,-2.6423064103
 C,0,2.8809575469,-0.9534029165,3.6857938759
 H,0,3.4409056247,-0.1946870691,-4.8031899611
 C,0,4.3790286751,0.8634892499,1.8686208083
 C,0,4.0511259285,0.2353675156,-3.9918716302
 H,0,6.162332427,1.9359859697,0.6257805883
 C,0,6.3814550213,2.2048962283,-0.4132767661
 H,0,4.4475892355,1.1888885322,-4.3540070947
 H,0,6.8847671278,3.1853839273,-0.3932344022
 C,0,2.8520449154,-2.5341817993,1.1002552615
 N,0,3.5587645164,-1.5691270361,0.4843246295
 C,0,2.3587470565,-1.7784810601,4.851922109
 H,0,3.1480615544,-1.8170552444,-2.4909898164
 H,0,3.7889811764,-1.4186356334,3.2729685068
 H,0,6.2066181371,1.8756542239,-3.1524084218
 H,0,2.0811587247,-2.8028663288,4.5618439009
 C,0,5.2736149828,-0.6975485287,-0.9775504037
 H,0,3.1525119704,-1.8597822696,5.6094826603
 H,0,4.8951345777,-0.4540955919,-3.8330773572
 C,0,4.5782953672,-1.8684191064,-0.3431603275
 C,0,3.1790970004,-3.8747911319,0.9320506596
 H,0,7.1013336658,1.4815452385,-0.8267169347
 H,0,2.6027312603,-4.6445342708,1.4464106377
 H,0,6.0634931046,-0.3507328445,-0.2918085225
 H,0,5.7579815878,-0.9852392066,-1.9217519717
 C,0,4.9380759885,-3.1957750721,-0.5639603482
 C,0,4.2357754333,-4.2066730458,0.087080536
 H,0,5.7620591468,-3.4289449721,-1.2391294731
 H,0,4.509035974,-5.2518270975,-0.0680395788
 O,0,5.2274673456,1.1721802735,2.602953378
 H,0,0.7594189538,0.8483455959,-0.0181300967
 Recover connectivity data from disk.
                           ----------------------------
                           !    Current Parameters    !
                           ! (Angstroms and Degrees)  !
 --------------------------                            --------------------------
 ! Name  Definition              Value                                          !
 --------------------------------------------------------------------------------
 ! R1    R(1,2)                  1.0999                                         !
 ! R2    R(2,3)                  1.1011                                         !
 ! R3    R(2,4)                  1.1027                                         !
 ! R4    R(2,9)                  1.513                                          !
 ! R5    R(5,12)                 1.0989                                         !
 ! R6    R(6,19)                 1.9162                                         !
 ! R7    R(7,16)                 1.0998                                         !
 ! R8    R(8,19)                 2.0671                                         !
 ! R9    R(8,63)                 0.9721                                         !
 ! R10   R(9,11)                 1.107                                          !
 ! R11   R(9,15)                 1.0991                                         !
 ! R12   R(9,21)                 1.4812                                         !
 ! R13   R(10,12)                1.1027                                         !
 ! R14   R(12,14)                1.1001                                         !
 ! R15   R(12,23)                1.5293                                         !
 ! R16   R(13,16)                1.1006                                         !
 ! R17   R(16,17)                1.1028                                         !
 ! R18   R(16,27)                1.533                                          !
 ! R19   R(18,22)                1.1041                                         !
 ! R20   R(19,28)                2.3165                                         !
 ! R21   R(19,36)                1.8368                                         !
 ! R22   R(19,43)                2.0954                                         !
 ! R23   R(20,26)                1.1017                                         !
 ! R24   R(21,22)                1.4774                                         !
 ! R25   R(21,34)                1.4807                                         !
 ! R26   R(22,29)                1.1022                                         !
 ! R27   R(22,42)                1.4984                                         !
 ! R28   R(23,26)                1.5345                                         !
 ! R29   R(23,28)                1.901                                          !
 ! R30   R(23,37)                1.5314                                         !
 ! R31   R(24,26)                1.1033                                         !
 ! R32   R(25,30)                1.0976                                         !
 ! R33   R(26,45)                1.1011                                         !
 ! R34   R(27,28)                1.9072                                         !
 ! R35   R(27,30)                1.5279                                         !
 ! R36   R(27,39)                1.5308                                         !
 ! R37   R(28,49)                1.8753                                         !
 ! R38   R(30,33)                1.1027                                         !
 ! R39   R(30,47)                1.0997                                         !
 ! R40   R(31,34)                1.0972                                         !
 ! R41   R(32,44)                1.0997                                         !
 ! R42   R(34,44)                1.521                                          !
 ! R43   R(34,46)                1.1006                                         !
 ! R44   R(35,37)                1.1025                                         !
 ! R45   R(36,62)                1.1638                                         !
 ! R46   R(37,40)                1.0943                                         !
 ! R47   R(37,51)                1.1013                                         !
 ! R48   R(38,39)                1.0954                                         !
 ! R49   R(39,41)                1.1023                                         !
 ! R50   R(39,54)                1.1011                                         !
 ! R51   R(42,43)                1.3454                                         !
 ! R52   R(42,53)                1.3901                                         !
 ! R53   R(43,52)                1.3468                                         !
 ! R54   R(44,48)                1.1003                                         !
 ! R55   R(44,50)                1.1003                                         !
 ! R56   R(49,52)                1.5023                                         !
 ! R57   R(49,56)                1.102                                          !
 ! R58   R(49,57)                1.0995                                         !
 ! R59   R(52,58)                1.3929                                         !
 ! R60   R(53,55)                1.0905                                         !
 ! R61   R(53,59)                1.3931                                         !
 ! R62   R(58,59)                1.3925                                         !
 ! R63   R(58,60)                1.0905                                         !
 ! R64   R(59,61)                1.0914                                         !
 ! A1    A(1,2,3)              107.3207                                         !
 ! A2    A(1,2,4)              107.9774                                         !
 ! A3    A(1,2,9)              108.7891                                         !
 ! A4    A(3,2,4)              109.5565                                         !
 ! A5    A(3,2,9)              112.9631                                         !
 ! A6    A(4,2,9)              110.0754                                         !
 ! A7    A(19,8,63)             96.2069                                         !
 ! A8    A(2,9,11)             111.1104                                         !
 ! A9    A(2,9,15)             110.2695                                         !
 ! A10   A(2,9,21)             113.6259                                         !
 ! A11   A(11,9,15)            107.975                                          !
 ! A12   A(11,9,21)            109.0844                                         !
 ! A13   A(15,9,21)            104.4389                                         !
 ! A14   A(5,12,10)            108.2961                                         !
 ! A15   A(5,12,14)            109.0262                                         !
 ! A16   A(5,12,23)            110.2453                                         !
 ! A17   A(10,12,14)           107.5952                                         !
 ! A18   A(10,12,23)           109.1444                                         !
 ! A19   A(14,12,23)           112.4168                                         !
 ! A20   A(7,16,13)            106.622                                          !
 ! A21   A(7,16,17)            107.7748                                         !
 ! A22   A(7,16,27)            111.5216                                         !
 ! A23   A(13,16,17)           109.5783                                         !
 ! A24   A(13,16,27)           112.4439                                         !
 ! A25   A(17,16,27)           108.7796                                         !
 ! A26   A(6,19,8)              82.669                                          !
 ! A27   A(6,19,28)             99.8684                                         !
 ! A28   A(6,19,36)             92.6122                                         !
 ! A29   A(8,19,28)             95.4692                                         !
 ! A30   A(8,19,43)             89.0707                                         !
 ! A31   A(28,19,36)            92.7796                                         !
 ! A32   A(28,19,43)            81.1748                                         !
 ! A33   A(36,19,43)            95.5328                                         !
 ! A34   A(9,21,22)            108.4225                                         !
 ! A35   A(9,21,34)            112.9415                                         !
 ! A36   A(22,21,34)           111.0386                                         !
 ! A37   A(18,22,21)           104.8476                                         !
 ! A38   A(18,22,29)           109.8647                                         !
 ! A39   A(18,22,42)           106.3906                                         !
 ! A40   A(21,22,29)           112.0824                                         !
 ! A41   A(21,22,42)           111.9224                                         !
 ! A42   A(29,22,42)           111.3583                                         !
 ! A43   A(12,23,26)           108.9362                                         !
 ! A44   A(12,23,28)           107.347                                          !
 ! A45   A(12,23,37)           110.9097                                         !
 ! A46   A(26,23,28)           107.2264                                         !
 ! A47   A(26,23,37)           107.5408                                         !
 ! A48   A(28,23,37)           114.7112                                         !
 ! A49   A(20,26,23)           110.3776                                         !
 ! A50   A(20,26,24)           108.9244                                         !
 ! A51   A(20,26,45)           110.9326                                         !
 ! A52   A(23,26,24)           107.593                                          !
 ! A53   A(23,26,45)           111.9168                                         !
 ! A54   A(24,26,45)           106.9366                                         !
 ! A55   A(16,27,28)           105.8423                                         !
 ! A56   A(16,27,30)           109.3223                                         !
 ! A57   A(16,27,39)           109.609                                          !
 ! A58   A(28,27,30)           115.1935                                         !
 ! A59   A(28,27,39)           109.5422                                         !
 ! A60   A(30,27,39)           107.269                                          !
 ! A61   A(19,28,23)           116.9067                                         !
 ! A62   A(19,28,27)           117.6158                                         !
 ! A63   A(19,28,49)            97.2943                                         !
 ! A64   A(23,28,27)           111.6163                                         !
 ! A65   A(23,28,49)           103.2602                                         !
 ! A66   A(27,28,49)           107.4165                                         !
 ! A67   A(25,30,27)           112.4499                                         !
 ! A68   A(25,30,33)           107.0566                                         !
 ! A69   A(25,30,47)           108.9183                                         !
 ! A70   A(27,30,33)           107.9928                                         !
 ! A71   A(27,30,47)           112.7361                                         !
 ! A72   A(33,30,47)           107.4039                                         !
 ! A73   A(21,34,31)           107.1748                                         !
 ! A74   A(21,34,44)           116.4801                                         !
 ! A75   A(21,34,46)           106.6607                                         !
 ! A76   A(31,34,44)           109.7784                                         !
 ! A77   A(31,34,46)           106.2532                                         !
 ! A78   A(44,34,46)           109.9705                                         !
 ! A79   A(23,37,35)           107.7077                                         !
 ! A80   A(23,37,40)           113.9086                                         !
 ! A81   A(23,37,51)           112.5557                                         !
 ! A82   A(35,37,40)           107.2704                                         !
 ! A83   A(35,37,51)           106.6228                                         !
 ! A84   A(40,37,51)           108.3942                                         !
 ! A85   A(27,39,38)           113.4999                                         !
 ! A86   A(27,39,41)           108.0181                                         !
 ! A87   A(27,39,54)           111.9696                                         !
 ! A88   A(38,39,41)           107.0043                                         !
 ! A89   A(38,39,54)           109.0062                                         !
 ! A90   A(41,39,54)           107.0166                                         !
 ! A91   A(22,42,43)           114.1946                                         !
 ! A92   A(22,42,53)           124.8106                                         !
 ! A93   A(43,42,53)           120.8478                                         !
 ! A94   A(19,43,42)           116.0307                                         !
 ! A95   A(19,43,52)           122.6323                                         !
 ! A96   A(42,43,52)           121.3007                                         !
 ! A97   A(32,44,34)           112.2945                                         !
 ! A98   A(32,44,48)           108.1369                                         !
 ! A99   A(32,44,50)           107.3939                                         !
 ! A100  A(34,44,48)           112.9265                                         !
 ! A101  A(34,44,50)           108.6802                                         !
 ! A102  A(48,44,50)           107.1422                                         !
 ! A103  A(28,49,52)           110.0297                                         !
 ! A104  A(28,49,56)           105.4341                                         !
 ! A105  A(28,49,57)           113.9459                                         !
 ! A106  A(52,49,56)           108.3161                                         !
 ! A107  A(52,49,57)           111.2602                                         !
 ! A108  A(56,49,57)           107.5154                                         !
 ! A109  A(43,52,49)           115.8897                                         !
 ! A110  A(43,52,58)           120.313                                          !
 ! A111  A(49,52,58)           123.7964                                         !
 ! A112  A(42,53,55)           119.9523                                         !
 ! A113  A(42,53,59)           118.7893                                         !
 ! A114  A(55,53,59)           121.2528                                         !
 ! A115  A(52,58,59)           119.1722                                         !
 ! A116  A(52,58,60)           119.8076                                         !
 ! A117  A(59,58,60)           121.0202                                         !
 ! A118  A(53,59,58)           119.5507                                         !
 ! A119  A(53,59,61)           120.2834                                         !
 ! A120  A(58,59,61)           120.1652                                         !
 ! A121  L(6,19,43,8,-1)       171.7397                                         !
 ! A122  L(8,19,36,6,-1)       175.2812                                         !
 ! A123  L(19,36,62,1,-1)      174.7666                                         !
 ! A124  L(6,19,43,8,-2)       180.3236                                         !
 ! A125  L(8,19,36,6,-2)       172.41                                           !
 ! A126  L(19,36,62,1,-2)      179.041                                          !
 ! D1    D(1,2,9,11)           -63.5077                                         !
 ! D2    D(1,2,9,15)            56.1766                                         !
 ! D3    D(1,2,9,21)           173.0274                                         !
 ! D4    D(3,2,9,11)            55.5505                                         !
 ! D5    D(3,2,9,15)           175.2348                                         !
 ! D6    D(3,2,9,21)           -67.9144                                         !
 ! D7    D(4,2,9,11)           178.3644                                         !
 ! D8    D(4,2,9,15)           -61.9513                                         !
 ! D9    D(4,2,9,21)            54.8995                                         !
 ! D10   D(63,8,19,6)            4.7271                                         !
 ! D11   D(63,8,19,28)         -94.5536                                         !
 ! D12   D(63,8,19,43)        -175.5964                                         !
 ! D13   D(2,9,21,22)          179.9488                                         !
 ! D14   D(2,9,21,34)           56.453                                          !
 ! D15   D(11,9,21,22)          55.3854                                         !
 ! D16   D(11,9,21,34)         -68.1104                                         !
 ! D17   D(15,9,21,22)         -59.8465                                         !
 ! D18   D(15,9,21,34)         176.6577                                         !
 ! D19   D(5,12,23,26)          60.7475                                         !
 ! D20   D(5,12,23,28)         -55.0492                                         !
 ! D21   D(5,12,23,37)         178.9227                                         !
 ! D22   D(10,12,23,26)        -58.0834                                         !
 ! D23   D(10,12,23,28)       -173.88                                           !
 ! D24   D(10,12,23,37)         60.0918                                         !
 ! D25   D(14,12,23,26)       -177.381                                          !
 ! D26   D(14,12,23,28)         66.8223                                         !
 ! D27   D(14,12,23,37)        -59.2058                                         !
 ! D28   D(7,16,27,28)         -65.8048                                         !
 ! D29   D(7,16,27,30)          58.8335                                         !
 ! D30   D(7,16,27,39)         176.1472                                         !
 ! D31   D(13,16,27,28)         53.9036                                         !
 ! D32   D(13,16,27,30)        178.5419                                         !
 ! D33   D(13,16,27,39)        -64.1444                                         !
 ! D34   D(17,16,27,28)        175.4642                                         !
 ! D35   D(17,16,27,30)        -59.8975                                         !
 ! D36   D(17,16,27,39)         57.4162                                         !
 ! D37   D(6,19,28,23)         -89.2194                                         !
 ! D38   D(6,19,28,27)          47.8099                                         !
 ! D39   D(6,19,28,49)         161.8589                                         !
 ! D40   D(8,19,28,23)          -5.7339                                         !
 ! D41   D(8,19,28,27)         131.2955                                         !
 ! D42   D(8,19,28,49)        -114.6555                                         !
 ! D43   D(36,19,28,23)        177.6415                                         !
 ! D44   D(36,19,28,27)        -45.3292                                         !
 ! D45   D(36,19,28,49)         68.7198                                         !
 ! D46   D(43,19,28,23)         82.4694                                         !
 ! D47   D(43,19,28,27)       -140.5013                                         !
 ! D48   D(43,19,28,49)        -26.4523                                         !
 ! D49   D(8,19,43,42)         -62.9902                                         !
 ! D50   D(8,19,43,52)         114.8417                                         !
 ! D51   D(28,19,43,42)       -158.6709                                         !
 ! D52   D(28,19,43,52)         19.1611                                         !
 ! D53   D(36,19,43,42)        109.3655                                         !
 ! D54   D(36,19,43,52)        -72.8025                                         !
 ! D55   D(9,21,22,18)          49.4942                                         !
 ! D56   D(9,21,22,29)         -69.6441                                         !
 ! D57   D(9,21,22,42)         164.4157                                         !
 ! D58   D(34,21,22,18)        174.1265                                         !
 ! D59   D(34,21,22,29)         54.9883                                         !
 ! D60   D(34,21,22,42)        -70.9519                                         !
 ! D61   D(9,21,34,31)         -67.1576                                         !
 ! D62   D(9,21,34,44)          56.1854                                         !
 ! D63   D(9,21,34,46)         179.3719                                         !
 ! D64   D(22,21,34,31)        170.8045                                         !
 ! D65   D(22,21,34,44)        -65.8525                                         !
 ! D66   D(22,21,34,46)         57.334                                          !
 ! D67   D(18,22,42,43)         75.6531                                         !
 ! D68   D(18,22,42,53)        -99.9528                                         !
 ! D69   D(21,22,42,43)        -38.3195                                         !
 ! D70   D(21,22,42,53)        146.0746                                         !
 ! D71   D(29,22,42,43)       -164.6547                                         !
 ! D72   D(29,22,42,53)         19.7394                                         !
 ! D73   D(12,23,26,20)        -60.1373                                         !
 ! D74   D(12,23,26,24)         58.5958                                         !
 ! D75   D(12,23,26,45)        175.7889                                         !
 ! D76   D(28,23,26,20)         55.7369                                         !
 ! D77   D(28,23,26,24)        174.4699                                         !
 ! D78   D(28,23,26,45)        -68.337                                          !
 ! D79   D(37,23,26,20)        179.5872                                         !
 ! D80   D(37,23,26,24)        -61.6798                                         !
 ! D81   D(37,23,26,45)         55.5133                                         !
 ! D82   D(12,23,28,19)         72.2332                                         !
 ! D83   D(12,23,28,27)        -67.2509                                         !
 ! D84   D(12,23,28,49)        177.6518                                         !
 ! D85   D(26,23,28,19)        -44.6901                                         !
 ! D86   D(26,23,28,27)        175.8258                                         !
 ! D87   D(26,23,28,49)         60.7285                                         !
 ! D88   D(37,23,28,19)       -164.0327                                         !
 ! D89   D(37,23,28,27)         56.4833                                         !
 ! D90   D(37,23,28,49)        -58.6141                                         !
 ! D91   D(12,23,37,35)        -70.29                                           !
 ! D92   D(12,23,37,40)         48.5552                                         !
 ! D93   D(12,23,37,51)        172.4655                                         !
 ! D94   D(26,23,37,35)         48.7287                                         !
 ! D95   D(26,23,37,40)        167.574                                          !
 ! D96   D(26,23,37,51)        -68.5158                                         !
 ! D97   D(28,23,37,35)        167.8956                                         !
 ! D98   D(28,23,37,40)        -73.2592                                         !
 ! D99   D(28,23,37,51)         50.6511                                         !
 ! D100  D(16,27,28,19)        -45.3916                                         !
 ! D101  D(16,27,28,23)         93.7785                                         !
 ! D102  D(16,27,28,49)       -153.7091                                         !
 ! D103  D(30,27,28,19)       -166.2952                                         !
 ! D104  D(30,27,28,23)        -27.1251                                         !
 ! D105  D(30,27,28,49)         85.3874                                         !
 ! D106  D(39,27,28,19)         72.701                                          !
 ! D107  D(39,27,28,23)       -148.1289                                         !
 ! D108  D(39,27,28,49)        -35.6165                                         !
 ! D109  D(16,27,30,25)        -54.0256                                         !
 ! D110  D(16,27,30,33)         63.8714                                         !
 ! D111  D(16,27,30,47)       -177.6337                                         !
 ! D112  D(28,27,30,25)         64.9635                                         !
 ! D113  D(28,27,30,33)       -177.1396                                         !
 ! D114  D(28,27,30,47)        -58.6446                                         !
 ! D115  D(39,27,30,25)       -172.8039                                         !
 ! D116  D(39,27,30,33)        -54.9069                                         !
 ! D117  D(39,27,30,47)         63.588                                          !
 ! D118  D(16,27,39,38)         62.777                                          !
 ! D119  D(16,27,39,41)        -55.6975                                         !
 ! D120  D(16,27,39,54)       -173.2819                                         !
 ! D121  D(28,27,39,38)        -52.9425                                         !
 ! D122  D(28,27,39,41)       -171.417                                          !
 ! D123  D(28,27,39,54)         70.9986                                         !
 ! D124  D(30,27,39,38)       -178.6299                                         !
 ! D125  D(30,27,39,41)         62.8956                                         !
 ! D126  D(30,27,39,54)        -54.6889                                         !
 ! D127  D(19,28,49,52)         36.2964                                         !
 ! D128  D(19,28,49,56)        -80.2968                                         !
 ! D129  D(19,28,49,57)        162.0425                                         !
 ! D130  D(23,28,49,52)        -83.6303                                         !
 ! D131  D(23,28,49,56)        159.7764                                         !
 ! D132  D(23,28,49,57)         42.1157                                         !
 ! D133  D(27,28,49,52)        158.2971                                         !
 ! D134  D(27,28,49,56)         41.7039                                         !
 ! D135  D(27,28,49,57)        -75.9568                                         !
 ! D136  D(21,34,44,32)        -62.3174                                         !
 ! D137  D(21,34,44,48)         60.2788                                         !
 ! D138  D(21,34,44,50)        179.0178                                         !
 ! D139  D(31,34,44,32)         59.6684                                         !
 ! D140  D(31,34,44,48)       -177.7354                                         !
 ! D141  D(31,34,44,50)        -58.9963                                         !
 ! D142  D(46,34,44,32)        176.2282                                         !
 ! D143  D(46,34,44,48)        -61.1756                                         !
 ! D144  D(46,34,44,50)         57.5634                                         !
 ! D145  D(22,42,43,19)          4.0043                                         !
 ! D146  D(22,42,43,52)       -173.8589                                         !
 ! D147  D(53,42,43,19)        179.8024                                         !
 ! D148  D(53,42,43,52)          1.9392                                         !
 ! D149  D(22,42,53,55)         -5.2973                                         !
 ! D150  D(22,42,53,59)        173.8519                                         !
 ! D151  D(43,42,53,55)        179.3719                                         !
 ! D152  D(43,42,53,59)         -1.479                                          !
 ! D153  D(19,43,52,49)          1.6122                                         !
 ! D154  D(19,43,52,58)       -178.7171                                         !
 ! D155  D(42,43,52,49)        179.3322                                         !
 ! D156  D(42,43,52,58)         -0.9971                                         !
 ! D157  D(28,49,52,43)        -27.9222                                         !
 ! D158  D(28,49,52,58)        152.4198                                         !
 ! D159  D(56,49,52,43)         86.853                                          !
 ! D160  D(56,49,52,58)        -92.805                                          !
 ! D161  D(57,49,52,43)       -155.1794                                         !
 ! D162  D(57,49,52,58)         25.1626                                         !
 ! D163  D(43,52,58,59)         -0.3658                                         !
 ! D164  D(43,52,58,60)        179.7257                                         !
 ! D165  D(49,52,58,59)        179.2777                                         !
 ! D166  D(49,52,58,60)         -0.6307                                         !
 ! D167  D(42,53,59,58)          0.1236                                         !
 ! D168  D(42,53,59,61)       -179.5816                                         !
 ! D169  D(55,53,59,58)        179.2612                                         !
 ! D170  D(55,53,59,61)         -0.4439                                         !
 ! D171  D(52,58,59,53)          0.7741                                         !
 ! D172  D(52,58,59,61)       -179.5204                                         !
 ! D173  D(60,58,59,53)       -179.3186                                         !
 ! D174  D(60,58,59,61)          0.3869                                         !
 --------------------------------------------------------------------------------
 Stoichiometry    C20H36N2O3PRu(2)
 Framework group  C1[X(C20H36N2O3PRu)]
 Deg. of freedom   183
 Full point group                 C1      NOp   1
 Largest Abelian subgroup         C1      NOp   1
 Largest concise Abelian subgroup C1      NOp   1
                         Standard orientation:                         
 ---------------------------------------------------------------------
 Center     Atomic      Atomic             Coordinates (Angstroms)
 Number     Number       Type             X           Y           Z
 ---------------------------------------------------------------------
      1          1           0       -3.521465   -3.331803    1.914756
      2          6           0       -3.212729   -2.739245    1.041029
      3          1           0       -3.905990   -2.979921    0.220155
      4          1           0       -2.191157   -3.048290    0.763975
      5          1           0        1.938257   -0.693284    2.691784
      6          8           0       -0.164591   -2.377542    0.902228
      7          1           0        2.965314   -2.607302    0.755019
      8          8           0       -0.511427   -0.095343    2.169226
      9          6           0       -3.228181   -1.273565    1.416112
     10          1           0        3.269956    0.297602    3.346645
     11          1           0       -4.252134   -0.937616    1.669512
     12          6           0        2.882370   -0.191692    2.437679
     13          1           0        1.614189   -2.865208   -0.350157
     14          1           0        3.618340   -0.948307    2.127739
     15          1           0       -2.587142   -1.097749    2.291488
     16          6           0        2.681297   -2.599124   -0.307463
     17          1           0        3.275965   -3.373048   -0.820875
     18          1           0       -2.304734    0.980167    1.862280
     19         44           0       -0.409862   -0.622549    0.173042
     20          1           0        0.700349    1.439405    2.156697
     21          7           0       -2.673066   -0.386672    0.367743
     22          6           0       -2.744641    1.007940    0.850025
     23          6           0        2.645644    0.867334    1.360162
     24          1           0        2.101880    2.348807    2.810985
     25          1           0        4.812598   -0.983976    0.212334
     26          6           0        1.660583    1.913694    1.898235
     27          6           0        2.972370   -1.241338   -0.956976
     28         15           0        1.802649    0.003250   -0.108293
     29          1           0       -3.782482    1.375459    0.902622
     30          6           0        4.461919   -0.927273   -0.826157
     31          1           0       -3.128098   -1.538563   -1.312050
     32          1           0       -5.392323   -1.049300   -0.308242
     33          1           0        5.021525   -1.685842   -1.398397
     34          6           0       -3.359461   -0.534179   -0.935899
     35          1           0        4.218570    2.227029    1.875010
     36          6           0       -0.540360   -1.262668   -1.543684
     37          6           0        3.947877    1.594766    1.013313
     38          1           0        1.595232   -1.505928   -2.664018
     39          6           0        2.651591   -1.307839   -2.452282
     40          1           0        4.792628    0.925582    0.823272
     41          1           0        3.229186   -2.139336   -2.888260
     42          6           0       -1.881274    1.925413    0.038821
     43          7           0       -0.706858    1.387784   -0.337819
     44          6           0       -4.864976   -0.317998   -0.937941
     45          1           0        1.511746    2.741695    1.187751
     46          1           0       -2.877265    0.172664   -1.628166
     47          1           0        4.726529    0.057217   -1.238582
     48          1           0       -5.153592    0.690642   -0.606411
     49          6           0        1.501745    1.404978   -1.317215
     50          1           0       -5.237155   -0.440304   -1.966092
     51          1           0        3.837827    2.269390    0.149775
     52          6           0        0.230219    2.123639   -0.965636
     53          6           0       -2.181262    3.252783   -0.245054
     54          1           0        2.957429   -0.391326   -2.980355
     55          1           0       -3.141834    3.670745    0.058058
     56          1           0        1.366620    0.922025   -2.298505
     57          1           0        2.344198    2.105825   -1.406536
     58          6           0       -0.008504    3.464227   -1.258726
     59          6           0       -1.229624    4.030100   -0.901447
     60          1           0        0.757798    4.053573   -1.763328
     61          1           0       -1.436849    5.076894   -1.130273
     62          8           0       -0.710292   -1.722574   -2.599143
     63          1           0       -0.307399   -0.978066    2.521579
 ---------------------------------------------------------------------
 Rotational constants (GHZ):           0.2481000           0.1586113           0.1333186
 General basis read from cards:  (5D, 7F)
 ======================================================================================================
                                       Pseudopotential Parameters
 ======================================================================================================
  Center     Atomic      Valence      Angular      Power
  Number     Number     Electrons     Momentum     of R      Exponent        Coefficient   SO-Coeffient
 ======================================================================================================
    1          1
                                   No pseudopotential on this center.
    2          6
                                   No pseudopotential on this center.
    3          1
                                   No pseudopotential on this center.
    4          1
                                   No pseudopotential on this center.
    5          1
                                   No pseudopotential on this center.
    6          8
                                   No pseudopotential on this center.
    7          1
                                   No pseudopotential on this center.
    8          8
                                   No pseudopotential on this center.
    9          6
                                   No pseudopotential on this center.
   10          1
                                   No pseudopotential on this center.
   11          1
                                   No pseudopotential on this center.
   12          6
                                   No pseudopotential on this center.
   13          1
                                   No pseudopotential on this center.
   14          1
                                   No pseudopotential on this center.
   15          1
                                   No pseudopotential on this center.
   16          6
                                   No pseudopotential on this center.
   17          1
                                   No pseudopotential on this center.
   18          1
                                   No pseudopotential on this center.
   19         44           16
                                      G and up 
                                                     2        1.0000000        0.00000000    0.00000000
                                      S - G
                                                     2       11.1052690      209.82297100    0.00000000
                                                     2        5.4147450       30.65472600    0.00000000
                                      P - G
                                                     2        9.7712710      146.33618200    0.00000000
                                                     2        5.0739910       24.12787700    0.00000000
                                      D - G
                                                     2        7.6714230       67.51589700    0.00000000
                                                     2        4.1365650        9.87010400    0.00000000
                                      F - G
                                                     2       11.3600000      -28.34061600    0.00000000
                                                     2        5.6800000       -4.94462900    0.00000000
   20          1
                                   No pseudopotential on this center.
   21          7
                                   No pseudopotential on this center.
   22          6
                                   No pseudopotential on this center.
   23          6
                                   No pseudopotential on this center.
   24          1
                                   No pseudopotential on this center.
   25          1
                                   No pseudopotential on this center.
   26          6
                                   No pseudopotential on this center.
   27          6
                                   No pseudopotential on this center.
   28         15
                                   No pseudopotential on this center.
   29          1
                                   No pseudopotential on this center.
   30          6
                                   No pseudopotential on this center.
   31          1
                                   No pseudopotential on this center.
   32          1
                                   No pseudopotential on this center.
   33          1
                                   No pseudopotential on this center.
   34          6
                                   No pseudopotential on this center.
   35          1
                                   No pseudopotential on this center.
   36          6
                                   No pseudopotential on this center.
   37          6
                                   No pseudopotential on this center.
   38          1
                                   No pseudopotential on this center.
   39          6
                                   No pseudopotential on this center.
   40          1
                                   No pseudopotential on this center.
   41          1
                                   No pseudopotential on this center.
   42          6
                                   No pseudopotential on this center.
   43          7
                                   No pseudopotential on this center.
   44          6
                                   No pseudopotential on this center.
   45          1
                                   No pseudopotential on this center.
   46          1
                                   No pseudopotential on this center.
   47          1
                                   No pseudopotential on this center.
   48          1
                                   No pseudopotential on this center.
   49          6
                                   No pseudopotential on this center.
   50          1
                                   No pseudopotential on this center.
   51          1
                                   No pseudopotential on this center.
   52          6
                                   No pseudopotential on this center.
   53          6
                                   No pseudopotential on this center.
   54          1
                                   No pseudopotential on this center.
   55          1
                                   No pseudopotential on this center.
   56          1
                                   No pseudopotential on this center.
   57          1
                                   No pseudopotential on this center.
   58          6
                                   No pseudopotential on this center.
   59          6
                                   No pseudopotential on this center.
   60          1
                                   No pseudopotential on this center.
   61          1
                                   No pseudopotential on this center.
   62          8
                                   No pseudopotential on this center.
   63          1
                                   No pseudopotential on this center.
 ======================================================================================================
 There are   613 symmetry adapted cartesian basis functions of A   symmetry.
 There are   584 symmetry adapted basis functions of A   symmetry.
   584 basis functions,  1213 primitive gaussians,   613 cartesian basis functions
   113 alpha electrons      112 beta electrons
       nuclear repulsion energy      3475.6921212532 Hartrees.
 NAtoms=   63 NActive=   63 NUniq=   63 SFac= 1.00D+00 NAtFMM=   60 NAOKFM=T Big=T
 Integral buffers will be    131072 words long.
 Regular integral format.
 Two-electron integral symmetry is turned on.
 Nuclear repulsion after empirical dispersion term =     3475.5962266652 Hartrees.
 ------------------------------------------------------------------------------
 Polarizable Continuum Model (PCM)
 =================================
 Model                : PCM.
 Atomic radii         : SMD-Coulomb.
 Polarization charges : Total charges.
 Charge compensation  : None.
 Solution method      : On-the-fly selection.
 Cavity type          : VdW (van der Waals Surface) (Alpha=1.000).
 Cavity algorithm     : GePol (No added spheres)
                        Default sphere list used, NSphG=   63.
                        Lebedev-Laikov grids with approx.  5.0 points / Ang**2.
                        Smoothing algorithm: York/Karplus (Gamma=1.0000).
                        Polarization charges: spherical gaussians, with
                                              point-specific exponents (IZeta= 3).
                        Self-potential: point-specific (ISelfS= 7).
                        Self-field    : sphere-specific E.n sum rule (ISelfD= 2).
 Solvent              : Water, Eps=  78.355300 Eps(inf)=   1.777849
 ------------------------------------------------------------------------------
 ------------------------------------------------------------------------------
 Atomic radii for non-electrostatic terms: SMD-CDS.
 ------------------------------------------------------------------------------
 Nuclear repulsion after PCM non-electrostatic terms =     3475.6130758469 Hartrees.
 One-electron integrals computed using PRISM.
   1 Symmetry operations used in ECPInt.
 ECPInt:  NShTT=   39340 NPrTT=  276277 LenC2=   36607 LenP2D=  140178.
 LDataN:  DoStor=T MaxTD1= 6 Len=  172
 NBasis=   584 RedAO= T EigKep=  4.36D-04  NBF=   584
 NBsUse=   584 1.00D-06 EigRej= -1.00D+00 NBFU=   584
 Defaulting to unpruned grid for atomic number  44.
 ExpMin= 1.60D-02 ExpMax= 9.48D+04 ExpMxC= 3.24D+03 IAcc=3 IRadAn=         5 AccDes= 0.00D+00
 Harris functional with IExCor= 1009 and IRadAn=       5 diagonalized for initial guess.
 HarFok:  IExCor= 1009 AccDes= 0.00D+00 IRadAn=         5 IDoV= 1 UseB2=F ITyADJ=14
 ICtDFT=  3500011 ScaDFX=  1.000000  1.000000  1.000000  1.000000
 Defaulting to unpruned grid for atomic number  44.
 FoFCou: FMM=F IPFlag=           0 FMFlag=      100000 FMFlg1=        2001
         NFxFlg=           0 DoJE=T BraDBF=F KetDBF=T FulRan=T
         wScrn=  0.000000 ICntrl=       500 IOpCl=  0 I1Cent=   200000004 NGrid=           0
         NMat0=    1 NMatS0=      1 NMatT0=    0 NMatD0=    1 NMtDS0=    0 NMtDT0=    0
 Petite list used in FoFCou.
 Initial guess <Sx>= 0.0000 <Sy>= 0.0000 <Sz>= 0.5000 <S**2>= 0.7500 S= 0.5000
 Requested convergence on RMS density matrix=1.00D-08 within 128 cycles.
 Requested convergence on MAX density matrix=1.00D-06.
 Requested convergence on             energy=1.00D-06.
 No special actions if energy rises.
 Defaulting to unpruned grid for atomic number  44.
 Defaulting to unpruned grid for atomic number  44.
 Defaulting to unpruned grid for atomic number  44.
 Defaulting to unpruned grid for atomic number  44.
 Defaulting to unpruned grid for atomic number  44.
 Defaulting to unpruned grid for atomic number  44.
 Defaulting to unpruned grid for atomic number  44.
 Defaulting to unpruned grid for atomic number  44.
 Defaulting to unpruned grid for atomic number  44.
 Defaulting to unpruned grid for atomic number  44.
 Defaulting to unpruned grid for atomic number  44.
 Defaulting to unpruned grid for atomic number  44.
 Defaulting to unpruned grid for atomic number  44.
 Defaulting to unpruned grid for atomic number  44.
 Defaulting to unpruned grid for atomic number  44.
 Defaulting to unpruned grid for atomic number  44.
 Inv3:  Mode=1 IEnd=    46736427.
 Iteration    1 A*A^-1 deviation from unit magnitude is 1.05D-14 for    715.
 Iteration    1 A*A^-1 deviation from orthogonality  is 6.04D-15 for   3902   1760.
 Iteration    1 A^-1*A deviation from unit magnitude is 1.09D-14 for    240.
 Iteration    1 A^-1*A deviation from orthogonality  is 7.33D-14 for   2935   2905.
 EnCoef did   100 forward-backward iterations
 EnCoef did   100 forward-backward iterations
 Restarting incremental Fock formation.
 Error on total polarization charges =  0.07121
 SCF Done:  E(UPBE1PBE) =  -1554.03563875     A.U. after   26 cycles
            NFock= 26  Conv=0.63D-08     -V/T= 2.0468
 <Sx>= 0.0000 <Sy>= 0.0000 <Sz>= 0.5000 <S**2>= 0.7599 S= 0.5049
 <L.S>= 0.000000000000E+00
 SMD-CDS (non-electrostatic) energy       (kcal/mol) =      10.57
 (included in total energy above)
 Annihilation of the first spin contaminant:
 S**2 before annihilation     0.7599,   after     0.7501
 DoSCS=F DFT=T ScalE2(SS,OS)=  1.000000  1.000000
 ExpMin= 1.60D-02 ExpMax= 9.48D+04 ExpMxC= 3.24D+03 IAcc=3 IRadAn=         5 AccDes= 0.00D+00
 HarFok:  IExCor=  205 AccDes= 0.00D+00 IRadAn=         5 IDoV=-2 UseB2=F ITyADJ=14
 ICtDFT= 12500011 ScaDFX=  1.000000  1.000000  1.000000  1.000000
 Defaulting to unpruned grid for atomic number  44.
 GSVD:  LWork=       -1428 too small for GESVD, short by        6290 words or        6290 for optimal perf.
 Range of M.O.s used for correlation:    35   584
 NBasis=   584 NAE=   113 NBE=   112 NFC=    34 NFV=     0
 NROrb=    550 NOA=    79 NOB=    78 NVA=   471 NVB=   472
 NEqPCM:  Using non-equilibrium solvation (IEInf=1, Eps=  78.3553, EpsInf=   1.7778)
 Inv3:  Mode=1 IEnd=    46736427.
 Iteration    1 A*A^-1 deviation from unit magnitude is 1.29D-14 for    474.
 Iteration    1 A*A^-1 deviation from orthogonality  is 4.11D-15 for   3680    458.
 Iteration    1 A^-1*A deviation from unit magnitude is 1.27D-14 for    474.
 Iteration    1 A^-1*A deviation from orthogonality  is 5.66D-15 for   2355   2315.
 Orbital symmetries:
 Alpha Orbitals:
       Occupied  (A) (A) (A) (A) (A) (A) (A) (A) (A) (A) (A) (A)
                 (A) (A) (A) (A) (A) (A) (A) (A) (A) (A) (A) (A)
                 (A) (A) (A) (A) (A) (A) (A) (A) (A) (A) (A) (A)
                 (A) (A) (A) (A) (A) (A) (A) (A) (A) (A) (A) (A)
                 (A) (A) (A) (A) (A) (A) (A) (A) (A) (A) (A) (A)
                 (A) (A) (A) (A) (A) (A) (A) (A) (A) (A) (A) (A)
                 (A) (A) (A) (A) (A) (A) (A) (A) (A) (A) (A) (A)
                 (A) (A) (A) (A) (A) (A) (A) (A) (A) (A) (A) (A)
                 (A) (A) (A) (A) (A) (A) (A) (A) (A) (A) (A) (A)
                 (A) (A) (A) (A) (A)
       Virtual   (A) (A) (A) (A) (A) (A) (A) (A) (A) (A) (A) (A)
                 (A) (A) (A) (A) (A) (A) (A) (A) (A) (A) (A) (A)
                 (A) (A) (A) (A) (A) (A) (A) (A) (A) (A) (A) (A)
                 (A) (A) (A) (A) (A) (A) (A) (A) (A) (A) (A) (A)
                 (A) (A) (A) (A) (A) (A) (A) (A) (A) (A) (A) (A)
                 (A) (A) (A) (A) (A) (A) (A) (A) (A) (A) (A) (A)
                 (A) (A) (A) (A) (A) (A) (A) (A) (A) (A) (A) (A)
                 (A) (A) (A) (A) (A) (A) (A) (A) (A) (A) (A) (A)
                 (A) (A) (A) (A) (A) (A) (A) (A) (A) (A) (A) (A)
                 (A) (A) (A) (A) (A) (A) (A) (A) (A) (A) (A) (A)
                 (A) (A) (A) (A) (A) (A) (A) (A) (A) (A) (A) (A)
                 (A) (A) (A) (A) (A) (A) (A) (A) (A) (A) (A) (A)
                 (A) (A) (A) (A) (A) (A) (A) (A) (A) (A) (A) (A)
                 (A) (A) (A) (A) (A) (A) (A) (A) (A) (A) (A) (A)
                 (A) (A) (A) (A) (A) (A) (A) (A) (A) (A) (A) (A)
                 (A) (A) (A) (A) (A) (A) (A) (A) (A) (A) (A) (A)
                 (A) (A) (A) (A) (A) (A) (A) (A) (A) (A) (A) (A)
                 (A) (A) (A) (A) (A) (A) (A) (A) (A) (A) (A) (A)
                 (A) (A) (A) (A) (A) (A) (A) (A) (A) (A) (A) (A)
                 (A) (A) (A) (A) (A) (A) (A) (A) (A) (A) (A) (A)
                 (A) (A) (A) (A) (A) (A) (A) (A) (A) (A) (A) (A)
                 (A) (A) (A) (A) (A) (A) (A) (A) (A) (A) (A) (A)
                 (A) (A) (A) (A) (A) (A) (A) (A) (A) (A) (A) (A)
                 (A) (A) (A) (A) (A) (A) (A) (A) (A) (A) (A) (A)
                 (A) (A) (A) (A) (A) (A) (A) (A) (A) (A) (A) (A)
                 (A) (A) (A) (A) (A) (A) (A) (A) (A) (A) (A) (A)
                 (A) (A) (A) (A) (A) (A) (A) (A) (A) (A) (A) (A)
                 (A) (A) (A) (A) (A) (A) (A) (A) (A) (A) (A) (A)
                 (A) (A) (A) (A) (A) (A) (A) (A) (A) (A) (A) (A)
                 (A) (A) (A) (A) (A) (A) (A) (A) (A) (A) (A) (A)
                 (A) (A) (A) (A) (A) (A) (A) (A) (A) (A) (A) (A)
                 (A) (A) (A) (A) (A) (A) (A) (A) (A) (A) (A) (A)
                 (A) (A) (A) (A) (A) (A) (A) (A) (A) (A) (A) (A)
                 (A) (A) (A) (A) (A) (A) (A) (A) (A) (A) (A) (A)
                 (A) (A) (A) (A) (A) (A) (A) (A) (A) (A) (A) (A)
                 (A) (A) (A) (A) (A) (A) (A) (A) (A) (A) (A) (A)
                 (A) (A) (A) (A) (A) (A) (A) (A) (A) (A) (A) (A)
                 (A) (A) (A) (A) (A) (A) (A) (A) (A) (A) (A) (A)
                 (A) (A) (A) (A) (A) (A) (A) (A) (A) (A) (A) (A)
                 (A) (A) (A)
 Beta  Orbitals:
       Occupied  (A) (A) (A) (A) (A) (A) (A) (A) (A) (A) (A) (A)
                 (A) (A) (A) (A) (A) (A) (A) (A) (A) (A) (A) (A)
                 (A) (A) (A) (A) (A) (A) (A) (A) (A) (A) (A) (A)
                 (A) (A) (A) (A) (A) (A) (A) (A) (A) (A) (A) (A)
                 (A) (A) (A) (A) (A) (A) (A) (A) (A) (A) (A) (A)
                 (A) (A) (A) (A) (A) (A) (A) (A) (A) (A) (A) (A)
                 (A) (A) (A) (A) (A) (A) (A) (A) (A) (A) (A) (A)
                 (A) (A) (A) (A) (A) (A) (A) (A) (A) (A) (A) (A)
                 (A) (A) (A) (A) (A) (A) (A) (A) (A) (A) (A) (A)
                 (A) (A) (A) (A)
       Virtual   (A) (A) (A) (A) (A) (A) (A) (A) (A) (A) (A) (A)
                 (A) (A) (A) (A) (A) (A) (A) (A) (A) (A) (A) (A)
                 (A) (A) (A) (A) (A) (A) (A) (A) (A) (A) (A) (A)
                 (A) (A) (A) (A) (A) (A) (A) (A) (A) (A) (A) (A)
                 (A) (A) (A) (A) (A) (A) (A) (A) (A) (A) (A) (A)
                 (A) (A) (A) (A) (A) (A) (A) (A) (A) (A) (A) (A)
                 (A) (A) (A) (A) (A) (A) (A) (A) (A) (A) (A) (A)
                 (A) (A) (A) (A) (A) (A) (A) (A) (A) (A) (A) (A)
                 (A) (A) (A) (A) (A) (A) (A) (A) (A) (A) (A) (A)
                 (A) (A) (A) (A) (A) (A) (A) (A) (A) (A) (A) (A)
                 (A) (A) (A) (A) (A) (A) (A) (A) (A) (A) (A) (A)
                 (A) (A) (A) (A) (A) (A) (A) (A) (A) (A) (A) (A)
                 (A) (A) (A) (A) (A) (A) (A) (A) (A) (A) (A) (A)
                 (A) (A) (A) (A) (A) (A) (A) (A) (A) (A) (A) (A)
                 (A) (A) (A) (A) (A) (A) (A) (A) (A) (A) (A) (A)
                 (A) (A) (A) (A) (A) (A) (A) (A) (A) (A) (A) (A)
                 (A) (A) (A) (A) (A) (A) (A) (A) (A) (A) (A) (A)
                 (A) (A) (A) (A) (A) (A) (A) (A) (A) (A) (A) (A)
                 (A) (A) (A) (A) (A) (A) (A) (A) (A) (A) (A) (A)
                 (A) (A) (A) (A) (A) (A) (A) (A) (A) (A) (A) (A)
                 (A) (A) (A) (A) (A) (A) (A) (A) (A) (A) (A) (A)
                 (A) (A) (A) (A) (A) (A) (A) (A) (A) (A) (A) (A)
                 (A) (A) (A) (A) (A) (A) (A) (A) (A) (A) (A) (A)
                 (A) (A) (A) (A) (A) (A) (A) (A) (A) (A) (A) (A)
                 (A) (A) (A) (A) (A) (A) (A) (A) (A) (A) (A) (A)
                 (A) (A) (A) (A) (A) (A) (A) (A) (A) (A) (A) (A)
                 (A) (A) (A) (A) (A) (A) (A) (A) (A) (A) (A) (A)
                 (A) (A) (A) (A) (A) (A) (A) (A) (A) (A) (A) (A)
                 (A) (A) (A) (A) (A) (A) (A) (A) (A) (A) (A) (A)
                 (A) (A) (A) (A) (A) (A) (A) (A) (A) (A) (A) (A)
                 (A) (A) (A) (A) (A) (A) (A) (A) (A) (A) (A) (A)
                 (A) (A) (A) (A) (A) (A) (A) (A) (A) (A) (A) (A)
                 (A) (A) (A) (A) (A) (A) (A) (A) (A) (A) (A) (A)
                 (A) (A) (A) (A) (A) (A) (A) (A) (A) (A) (A) (A)
                 (A) (A) (A) (A) (A) (A) (A) (A) (A) (A) (A) (A)
                 (A) (A) (A) (A) (A) (A) (A) (A) (A) (A) (A) (A)
                 (A) (A) (A) (A) (A) (A) (A) (A) (A) (A) (A) (A)
                 (A) (A) (A) (A) (A) (A) (A) (A) (A) (A) (A) (A)
                 (A) (A) (A) (A) (A) (A) (A) (A) (A) (A) (A) (A)
                 (A) (A) (A) (A)
   100 initial guesses have been made.
 Convergence on wavefunction:    0.001000000000000
 Iteration     1 Dimension   100 NMult     0 NNew    100
 CISAX will form    13 AO SS matrices at one time.
 Defaulting to unpruned grid for atomic number  44.
 Defaulting to unpruned grid for atomic number  44.
 Defaulting to unpruned grid for atomic number  44.
 Defaulting to unpruned grid for atomic number  44.
 Defaulting to unpruned grid for atomic number  44.
 Defaulting to unpruned grid for atomic number  44.
 Defaulting to unpruned grid for atomic number  44.
 Defaulting to unpruned grid for atomic number  44.
 Defaulting to unpruned grid for atomic number  44.
 Defaulting to unpruned grid for atomic number  44.
 Defaulting to unpruned grid for atomic number  44.
 Defaulting to unpruned grid for atomic number  44.
 Defaulting to unpruned grid for atomic number  44.
 Defaulting to unpruned grid for atomic number  44.
 Defaulting to unpruned grid for atomic number  44.
 Defaulting to unpruned grid for atomic number  44.
 New state      3 was old state     12
 New state      4 was old state      3
 New state      5 was old state     16
 New state      6 was old state     28
 New state      7 was old state     13
 New state      8 was old state      5
 New state      9 was old state      4
 New state     10 was old state      7
 New state     11 was old state      8
 New state     12 was old state      6
 New state     13 was old state     23
 New state     14 was old state     21
 New state     15 was old state     22
 New state     16 was old state     25
 New state     17 was old state      9
 New state     18 was old state     11
 New state     19 was old state     39
 New state     20 was old state     14
 New state     21 was old state     37
 New state     22 was old state     67
 New state     23 was old state     31
 New state     24 was old state     20
 New state     25 was old state     27
 Iteration     2 Dimension   150 NMult   100 NNew     50
 New state      4 was old state      6
 New state      6 was old state      4
 New state     11 was old state     13
 New state     12 was old state     11
 New state     13 was old state     12
 New state     14 was old state     16
 New state     16 was old state     14
 New state     17 was old state     18
 New state     18 was old state     19
 New state     19 was old state     20
 New state     20 was old state     17
 New state     21 was old state     23
 New state     22 was old state     21
 New state     23 was old state     24
 New state     24 was old state     22
 Iteration     3 Dimension   200 NMult   150 NNew     50
 Iteration     4 Dimension   250 NMult   200 NNew     50
 Iteration     5 Dimension   298 NMult   250 NNew     48
 Iteration     6 Dimension   324 NMult   298 NNew     26
 Iteration     7 Dimension   326 NMult   324 NNew      2
 ***********************************************************************
 Excited states from <AA,BB:AA,BB> singles matrix:
 ***********************************************************************
 
 ExtSpn:  IState=     1 X2= 1.010 Y2= 0.010 X2-Y2-1= 6.66D-16
          S2Grnd=  0.760 Ra=  0.000 Rb=  0.002 T= -0.004 S2Ext= -0.001 S2=  0.759
 ExtSpn:  IState=     2 X2= 1.004 Y2= 0.004 X2-Y2-1=-2.22D-16
          S2Grnd=  0.760 Ra=  0.006 Rb=  0.034 T=  0.000 S2Ext=  0.040 S2=  0.800
 ExtSpn:  IState=     3 X2= 1.011 Y2= 0.011 X2-Y2-1=-1.55D-15
          S2Grnd=  0.760 Ra=  0.147 Rb=  0.520 T=  0.510 S2Ext=  1.177 S2=  1.936
 ExtSpn:  IState=     4 X2= 1.010 Y2= 0.010 X2-Y2-1= 2.22D-16
          S2Grnd=  0.760 Ra=  0.203 Rb=  0.129 T=  0.281 S2Ext=  0.613 S2=  1.373
 ExtSpn:  IState=     5 X2= 1.008 Y2= 0.008 X2-Y2-1= 1.78D-15
          S2Grnd=  0.760 Ra=  0.053 Rb=  0.006 T=  0.013 S2Ext=  0.072 S2=  0.832
 ExtSpn:  IState=     6 X2= 1.013 Y2= 0.013 X2-Y2-1= 2.22D-16
          S2Grnd=  0.760 Ra=  0.264 Rb=  0.644 T=  0.802 S2Ext=  1.710 S2=  2.469
 ExtSpn:  IState=     7 X2= 1.010 Y2= 0.010 X2-Y2-1= 2.22D-16
          S2Grnd=  0.760 Ra=  0.265 Rb=  0.062 T=  0.171 S2Ext=  0.498 S2=  1.258
 ExtSpn:  IState=     8 X2= 1.003 Y2= 0.003 X2-Y2-1= 4.44D-16
          S2Grnd=  0.760 Ra=  0.126 Rb=  0.068 T=  0.141 S2Ext=  0.335 S2=  1.095
 ExtSpn:  IState=     9 X2= 1.004 Y2= 0.004 X2-Y2-1= 2.22D-16
          S2Grnd=  0.760 Ra=  0.492 Rb=  0.293 T= -0.484 S2Ext=  0.301 S2=  1.061
 ExtSpn:  IState=    10 X2= 1.003 Y2= 0.003 X2-Y2-1=-1.33D-15
          S2Grnd=  0.760 Ra=  0.461 Rb=  0.119 T= -0.124 S2Ext=  0.455 S2=  1.215
 ExtSpn:  IState=    11 X2= 1.005 Y2= 0.005 X2-Y2-1=-1.11D-16
          S2Grnd=  0.760 Ra=  0.383 Rb=  0.505 T=  0.565 S2Ext=  1.453 S2=  2.213
 ExtSpn:  IState=    12 X2= 1.004 Y2= 0.004 X2-Y2-1=-6.66D-16
          S2Grnd=  0.760 Ra=  0.559 Rb=  0.375 T= -0.658 S2Ext=  0.276 S2=  1.036
 ExtSpn:  IState=    13 X2= 1.010 Y2= 0.010 X2-Y2-1=-6.66D-16
          S2Grnd=  0.760 Ra=  0.290 Rb=  0.700 T=  0.817 S2Ext=  1.807 S2=  2.567
 ExtSpn:  IState=    14 X2= 1.002 Y2= 0.002 X2-Y2-1= 4.44D-16
          S2Grnd=  0.760 Ra=  0.167 Rb=  0.813 T=  0.172 S2Ext=  1.152 S2=  1.912
 ExtSpn:  IState=    15 X2= 1.006 Y2= 0.006 X2-Y2-1=-4.44D-16
          S2Grnd=  0.760 Ra=  0.289 Rb=  0.687 T=  0.383 S2Ext=  1.359 S2=  2.119
 ExtSpn:  IState=    16 X2= 1.018 Y2= 0.018 X2-Y2-1= 0.00D+00
          S2Grnd=  0.760 Ra=  0.474 Rb=  0.509 T=  0.673 S2Ext=  1.656 S2=  2.416
 ExtSpn:  IState=    17 X2= 1.004 Y2= 0.004 X2-Y2-1= 4.44D-16
          S2Grnd=  0.760 Ra=  0.553 Rb=  0.333 T=  0.119 S2Ext=  1.005 S2=  1.765
 ExtSpn:  IState=    18 X2= 1.006 Y2= 0.006 X2-Y2-1= 0.00D+00
          S2Grnd=  0.760 Ra=  0.332 Rb=  0.651 T=  0.716 S2Ext=  1.699 S2=  2.459
 ExtSpn:  IState=    19 X2= 1.002 Y2= 0.002 X2-Y2-1=-3.33D-16
          S2Grnd=  0.760 Ra=  0.519 Rb=  0.451 T= -0.806 S2Ext=  0.163 S2=  0.923
 ExtSpn:  IState=    20 X2= 1.002 Y2= 0.002 X2-Y2-1= 1.33D-15
          S2Grnd=  0.760 Ra=  0.622 Rb=  0.234 T= -0.100 S2Ext=  0.756 S2=  1.516
 ExtSpn:  IState=    21 X2= 1.004 Y2= 0.004 X2-Y2-1= 4.44D-16
          S2Grnd=  0.760 Ra=  0.316 Rb=  0.631 T=  0.792 S2Ext=  1.739 S2=  2.499
 ExtSpn:  IState=    22 X2= 1.002 Y2= 0.002 X2-Y2-1= 2.22D-16
          S2Grnd=  0.760 Ra=  0.358 Rb=  0.258 T=  0.417 S2Ext=  1.033 S2=  1.793
 ExtSpn:  IState=    23 X2= 1.002 Y2= 0.002 X2-Y2-1= 1.55D-15
          S2Grnd=  0.760 Ra=  0.276 Rb=  0.129 T=  0.176 S2Ext=  0.581 S2=  1.341
 ExtSpn:  IState=    24 X2= 1.002 Y2= 0.002 X2-Y2-1=-5.55D-16
          S2Grnd=  0.760 Ra=  0.457 Rb=  0.128 T=  0.203 S2Ext=  0.788 S2=  1.548
 ExtSpn:  IState=    25 X2= 1.002 Y2= 0.002 X2-Y2-1= 2.22D-16
          S2Grnd=  0.760 Ra=  0.362 Rb=  0.201 T=  0.057 S2Ext=  0.621 S2=  1.380
 Ground to excited state transition densities written to RWF  633
 Ground to excited state transition electric dipole moments (Au):
       state          X           Y           Z        Dip. S.      Osc.
         1         0.0922     -0.0777      0.0028      0.0146      0.0002
         2         0.0287      0.2670     -0.1457      0.0934      0.0056
         3        -0.0788     -0.1337      0.1598      0.0496      0.0036
         4        -0.1783     -0.3573      0.1634      0.1861      0.0136
         5         0.4664      0.1390     -0.1144      0.2500      0.0184
         6         0.0355     -0.2019      0.0638      0.0461      0.0035
         7        -0.1428      0.4855     -0.2900      0.3402      0.0265
         8        -0.0253     -0.2811      0.1193      0.0939      0.0077
         9         0.1446     -0.6629      0.0656      0.4647      0.0399
        10        -0.0899      0.4075     -0.0812      0.1807      0.0158
        11         0.1554     -0.2709      0.0792      0.1038      0.0091
        12         0.0157     -0.2799      0.0427      0.0804      0.0071
        13         0.0461     -0.1184      0.0621      0.0200      0.0018
        14        -0.0385     -0.3488      0.0683      0.1278      0.0118
        15        -0.0236     -0.0461     -0.0564      0.0059      0.0006
        16         0.1082     -0.0434      0.0049      0.0136      0.0013
        17         0.1268      0.2984      0.0129      0.1053      0.0102
        18        -0.0401     -0.1666      0.0243      0.0299      0.0029
        19         0.2542      0.0515      0.2119      0.1122      0.0112
        20         0.1162      0.0593      0.0132      0.0172      0.0017
        21         0.0118     -0.0174      0.0371      0.0018      0.0002
        22         0.0064      0.1460     -0.0350      0.0226      0.0023
        23         0.1048      0.1088     -0.0435      0.0247      0.0026
        24        -0.1564     -0.0145      0.0144      0.0249      0.0026
        25        -0.1159      0.0680     -0.0689      0.0228      0.0024
 Ground to excited state transition velocity dipole moments (Au):
       state          X           Y           Z        Dip. S.      Osc.
         1         0.0008      0.0014      0.0006      0.0000      0.0001
         2        -0.0031     -0.0140      0.0144      0.0004      0.0031
         3         0.0064      0.0119     -0.0150      0.0004      0.0025
         4         0.0152      0.0358     -0.0139      0.0017      0.0104
         5        -0.0400     -0.0147      0.0091      0.0019      0.0115
         6        -0.0056      0.0187     -0.0084      0.0005      0.0026
         7         0.0094     -0.0498      0.0271      0.0033      0.0189
         8         0.0081      0.0309     -0.0100      0.0011      0.0061
         9        -0.0178      0.0774     -0.0078      0.0064      0.0330
        10         0.0089     -0.0508      0.0083      0.0027      0.0139
        11        -0.0178      0.0289     -0.0092      0.0012      0.0063
        12        -0.0047      0.0249     -0.0111      0.0008      0.0038
        13        -0.0073      0.0126     -0.0066      0.0003      0.0012
        14         0.0015      0.0408     -0.0102      0.0018      0.0085
        15        -0.0020      0.0041      0.0051      0.0000      0.0002
        16        -0.0138      0.0046      0.0001      0.0002      0.0010
        17        -0.0078     -0.0384     -0.0004      0.0015      0.0071
        18         0.0068      0.0179     -0.0053      0.0004      0.0018
        19        -0.0184     -0.0060     -0.0253      0.0010      0.0045
        20        -0.0158     -0.0111     -0.0024      0.0004      0.0017
        21        -0.0012      0.0001     -0.0078      0.0001      0.0003
        22        -0.0052     -0.0193      0.0012      0.0004      0.0017
        23        -0.0152     -0.0047      0.0054      0.0003      0.0012
        24         0.0212     -0.0005     -0.0025      0.0005      0.0019
        25         0.0252     -0.0135      0.0056      0.0008      0.0036
 Ground to excited state transition magnetic dipole moments (Au):
       state          X           Y           Z
         1        -0.0677      0.7309     -0.3758
         2        -0.3614     -0.1029     -0.0712
         3        -0.1097     -0.2127     -0.2869
         4        -0.1039     -0.4163     -0.6842
         5         0.0581     -0.2861     -0.7256
         6         0.0101     -0.0876      0.0261
         7         0.0569     -0.1909     -0.4876
         8         0.0067      0.1301      0.0832
         9         0.1138      0.1391     -0.1214
        10        -0.0454      0.1310     -0.1264
        11         0.0372      0.1509      0.1936
        12         0.0960     -0.2422     -0.1809
        13         0.0538     -0.0026      0.0856
        14         0.0024     -0.3535     -0.1837
        15         0.0784     -0.1173      0.0973
        16         0.1247      0.1588      0.1936
        17         0.0775      0.4281      0.2509
        18         0.0199     -0.0828     -0.1523
        19        -0.0758      0.4833     -0.4392
        20         0.0949      0.1794      0.1095
        21         0.1187     -0.0057      0.0440
        22        -0.0652     -0.0642     -0.0752
        23        -0.2809     -0.1358     -0.3984
        24        -0.0702     -0.0401     -0.1327
        25         0.1009     -0.0184      0.2030
 Ground to excited state transition velocity quadrupole moments (Au):
       state          XX          YY          ZZ          XY          XZ          YZ
         1        -0.0024      0.0069     -0.0044      0.0047      0.0058     -0.0034
         2        -0.0980      0.0744     -0.0217      0.0011     -0.0124     -0.0638
         3         0.0884     -0.1539      0.0460      0.0306      0.0055      0.1012
         4         0.0773     -0.0763      0.0403     -0.0050      0.0021      0.0788
         5        -0.0256      0.0869     -0.0283      0.0948     -0.0310     -0.0860
         6         0.0153      0.0504     -0.0123     -0.0312      0.0094     -0.0018
         7        -0.1477      0.1859     -0.0600      0.0717     -0.0287     -0.1255
         8         0.0180      0.0021      0.0148     -0.0764      0.0114      0.0325
         9         0.0033      0.2598     -0.0478     -0.1536      0.0113     -0.0900
        10        -0.0556     -0.0519     -0.0022      0.0920     -0.0158      0.0141
        11        -0.0068      0.1056     -0.0204     -0.0685      0.0097     -0.0231
        12        -0.0686      0.2999     -0.0903     -0.0758      0.0118     -0.0817
        13         0.0278     -0.0064      0.0294     -0.0332      0.0154      0.0328
        14        -0.0144      0.1408     -0.0126     -0.0406      0.0126     -0.0440
        15         0.0034      0.0615     -0.0328     -0.0135     -0.0009     -0.0060
        16        -0.0107      0.0446     -0.0164     -0.0452      0.0054     -0.0075
        17         0.0173     -0.1530      0.0178      0.0236     -0.0104      0.0725
        18        -0.0440      0.1133     -0.0093     -0.0153      0.0079     -0.0292
        19        -0.1166      0.0910     -0.0242     -0.0366     -0.0463     -0.0533
        20         0.0240     -0.0249      0.0127     -0.0309     -0.0019      0.0411
        21        -0.0071      0.0724     -0.0423     -0.0176      0.0017      0.0253
        22         0.0732     -0.0674     -0.0018      0.0290     -0.0111      0.0502
        23         0.2083     -0.0389     -0.0309      0.0513     -0.0574     -0.0558
        24        -0.1578     -0.0290      0.0360      0.0256      0.0255      0.0140
        25         0.0631     -0.0390      0.0112     -0.0021      0.0071      0.0087
 <0|del|b> * <b|rxdel|0> + <0|del|b> * <b|delr+rdel|0>
 Rotatory Strengths (R) in cgs (10**-40 erg-esu-cm/Gauss)
       state          XX          YY          ZZ    R(velocity)    E-M Angle
         1        10.5244     -4.1750     13.3174      6.5556       59.97
         2         0.9923      1.1059     10.0326      4.0436       78.63
         3         4.0457     15.3683    -12.4536      2.3201       81.88
         4       -17.4095     29.3478    -56.9544    -15.0054      102.04
         5        -6.3805    -20.3529     -3.5588    -10.0974       97.95
         6        -5.4783     -1.6306     -4.7283     -3.9457      168.43
         7        -9.6226    -47.7879     38.3141     -6.3655       95.98
         8        10.3592     -3.6560     11.9819      6.2284       51.09
         9        33.0327     -1.8548     21.9828     17.7202       55.99
        10       -20.9534     -5.6347    -17.2826    -14.6236      145.81
        11         7.8488     -7.1423      9.5519      3.4195       77.35
        12        -9.2280      2.9149    -17.4340     -7.9157      120.67
        13        -1.4848     -3.6716      0.0187     -1.7126      127.95
        14       -32.2517      3.5447    -35.2524    -21.3198      138.49
        15        -0.1198      1.0555     -1.6273     -0.2305       96.78
        16         1.7877     -3.9329     -2.6400     -1.5951      103.75
        17       -41.3242     -3.1115    -39.1834    -27.8730      150.64
        18        -1.7498      1.6069     -2.4184     -0.8537       98.83
        19        20.9623     29.7531     -5.2509     15.1548       62.73
        20        -5.1545     -5.8111     -6.6147     -5.8601      146.72
        21        -0.4773     -1.5216     -0.2666     -0.7552      119.28
        22         2.2256     -0.1023      4.7117      2.2783       51.10
        23        -3.4248      6.1252      9.8733      4.1912       71.07
        24         0.6701     -1.8074     -4.0143     -1.7172      110.11
        25         3.2565      8.6756      5.4960      5.8094       53.68
 1/2[<0|r|b>*<b|rxdel|0> + (<0|rxdel|b>*<b|r|0>)*]
 Rotatory Strengths (R) in cgs (10**-40 erg-esu-cm/Gauss)
       state          XX          YY          ZZ     R(length)
         1         4.4169     40.1655      0.7437     15.1087
[...]
 Alpha virt. eigenvalues --    1.84503   1.85233   1.85632   1.86516   1.86724
 Alpha virt. eigenvalues --    1.87030   1.87900   1.88594   1.88660   1.89680
 Alpha virt. eigenvalues --    1.90422   1.91229   1.91294   1.91808   1.92412
 Alpha virt. eigenvalues --    1.93652   1.94086   1.94804   1.95598   1.96770
 Alpha virt. eigenvalues --    1.97307   1.97605   1.98990   1.99795   2.00471
 Alpha virt. eigenvalues --    2.00837   2.01387   2.01802   2.02466   2.03425
 Alpha virt. eigenvalues --    2.03812   2.04053   2.04654   2.06550   2.06901
 Alpha virt. eigenvalues --    2.07749   2.07901   2.08157   2.08540   2.08723
 Alpha virt. eigenvalues --    2.09528   2.10319   2.11202   2.11828   2.13238
 Alpha virt. eigenvalues --    2.13503   2.15231   2.15491   2.16398   2.16795
 Alpha virt. eigenvalues --    2.18742   2.19887   2.20629   2.21174   2.22569
 Alpha virt. eigenvalues --    2.23710   2.24831   2.25684   2.26048   2.26270
 Alpha virt. eigenvalues --    2.27310   2.27967   2.28501   2.28881   2.29851
 Alpha virt. eigenvalues --    2.30973   2.31483   2.33437   2.36209   2.38201
 Alpha virt. eigenvalues --    2.38703   2.40638   2.40774   2.41658   2.41996
 Alpha virt. eigenvalues --    2.42375   2.42679   2.43479   2.43801   2.44365
 Alpha virt. eigenvalues --    2.45819   2.46415   2.47210   2.47546   2.48062
 Alpha virt. eigenvalues --    2.48806   2.48899   2.49219   2.50540   2.50874
 Alpha virt. eigenvalues --    2.51823   2.52360   2.52931   2.53452   2.54143
 Alpha virt. eigenvalues --    2.54413   2.55425   2.56365   2.56785   2.57654
 Alpha virt. eigenvalues --    2.58066   2.58149   2.58901   2.59052   2.60265
 Alpha virt. eigenvalues --    2.60372   2.61115   2.61238   2.62800   2.64251
 Alpha virt. eigenvalues --    2.65532   2.66614   2.67768   2.68743   2.69340
 Alpha virt. eigenvalues --    2.70484   2.70932   2.71630   2.72600   2.73649
 Alpha virt. eigenvalues --    2.74458   2.77055   2.77858   2.78671   2.79983
 Alpha virt. eigenvalues --    2.81117   2.82127   2.83431   2.83962   2.86974
 Alpha virt. eigenvalues --    2.88674   2.93448   2.98356   3.00958   3.05282
 Alpha virt. eigenvalues --    3.09291   3.12116   3.14572   3.16605   3.50746
 Alpha virt. eigenvalues --    3.57402   3.83757  34.89727  34.98862  35.02013
 Alpha virt. eigenvalues --   46.00262
  Beta  occ. eigenvalues --  -77.26281 -19.27146 -19.15532 -19.14575 -14.44265
  Beta  occ. eigenvalues --  -14.44017 -10.32702 -10.29867 -10.29291 -10.26180
  Beta  occ. eigenvalues --  -10.26042 -10.26016 -10.25645 -10.25638 -10.25086
  Beta  occ. eigenvalues --  -10.24996 -10.24988 -10.24972 -10.21942 -10.21918
  Beta  occ. eigenvalues --  -10.21914 -10.21701 -10.21688 -10.21389 -10.21263
  Beta  occ. eigenvalues --  -10.20575  -6.64249  -4.77884  -4.77790  -4.77598
  Beta  occ. eigenvalues --   -3.05626  -1.89233  -1.88278  -1.87956  -1.13713
  Beta  occ. eigenvalues --   -1.01126  -0.97068  -0.92603  -0.85384  -0.84127
  Beta  occ. eigenvalues --   -0.83592  -0.83475  -0.82705  -0.77931  -0.77173
  Beta  occ. eigenvalues --   -0.74405  -0.70621  -0.70452  -0.70123  -0.69644
  Beta  occ. eigenvalues --   -0.69015  -0.66326  -0.66099  -0.63366  -0.62340
  Beta  occ. eigenvalues --   -0.57855  -0.57379  -0.56130  -0.53505  -0.53154
  Beta  occ. eigenvalues --   -0.52174  -0.51187  -0.50157  -0.48774  -0.47827
  Beta  occ. eigenvalues --   -0.46861  -0.46549  -0.46080  -0.45723  -0.45440
  Beta  occ. eigenvalues --   -0.45220  -0.44630  -0.44289  -0.44180  -0.43608
  Beta  occ. eigenvalues --   -0.43284  -0.43039  -0.41947  -0.41755  -0.41054
  Beta  occ. eigenvalues --   -0.40854  -0.40161  -0.39636  -0.38887  -0.38509
  Beta  occ. eigenvalues --   -0.38074  -0.37766  -0.37568  -0.36894  -0.36578
  Beta  occ. eigenvalues --   -0.36145  -0.35967  -0.35676  -0.35232  -0.34726
  Beta  occ. eigenvalues --   -0.34431  -0.34222  -0.33710  -0.32997  -0.32878
  Beta  occ. eigenvalues --   -0.32490  -0.31983  -0.31321  -0.30337  -0.28467
  Beta  occ. eigenvalues --   -0.28242  -0.27467  -0.26926  -0.25973  -0.25190
  Beta  occ. eigenvalues --   -0.21558  -0.19357
  Beta virt. eigenvalues --   -0.06546  -0.03826  -0.01966  -0.00416   0.01108
  Beta virt. eigenvalues --    0.01835   0.02192   0.02943   0.03744   0.03977
  Beta virt. eigenvalues --    0.06089   0.07009   0.08142   0.09130   0.09437
  Beta virt. eigenvalues --    0.09814   0.10154   0.11097   0.11308   0.11619
  Beta virt. eigenvalues --    0.12125   0.12395   0.12890   0.13298   0.13667
  Beta virt. eigenvalues --    0.13774   0.13870   0.14157   0.14746   0.15336
  Beta virt. eigenvalues --    0.15618   0.15752   0.16127   0.16892   0.17158
  Beta virt. eigenvalues --    0.17407   0.17740   0.18077   0.18439   0.18623
  Beta virt. eigenvalues --    0.18757   0.19236   0.19711   0.20051   0.20449
  Beta virt. eigenvalues --    0.20679   0.21372   0.21563   0.21928   0.21991
  Beta virt. eigenvalues --    0.22352   0.22624   0.23020   0.23515   0.23815
  Beta virt. eigenvalues --    0.24326   0.24365   0.24798   0.25435   0.26350
  Beta virt. eigenvalues --    0.26902   0.26993   0.27289   0.28227   0.28529
  Beta virt. eigenvalues --    0.28970   0.29509   0.30445   0.31508   0.32028
  Beta virt. eigenvalues --    0.32440   0.33365   0.34517   0.34571   0.35193
  Beta virt. eigenvalues --    0.35940   0.37796   0.38483   0.39805   0.41713
  Beta virt. eigenvalues --    0.42819   0.43277   0.43428   0.44188   0.44415
  Beta virt. eigenvalues --    0.44880   0.45316   0.46506   0.46625   0.48138
  Beta virt. eigenvalues --    0.48834   0.49054   0.50108   0.50328   0.51170
  Beta virt. eigenvalues --    0.51318   0.52160   0.52900   0.53360   0.53892
  Beta virt. eigenvalues --    0.54647   0.55252   0.56056   0.56263   0.56794
  Beta virt. eigenvalues --    0.57395   0.57636   0.58087   0.58467   0.58552
  Beta virt. eigenvalues --    0.59388   0.59991   0.60824   0.61251   0.61551
  Beta virt. eigenvalues --    0.61908   0.62515   0.63179   0.63327   0.63639
  Beta virt. eigenvalues --    0.64114   0.64384   0.65146   0.65247   0.65536
  Beta virt. eigenvalues --    0.65812   0.66251   0.66314   0.66858   0.66978
  Beta virt. eigenvalues --    0.67223   0.67592   0.68010   0.68213   0.68539
  Beta virt. eigenvalues --    0.68650   0.69166   0.69448   0.69598   0.70102
  Beta virt. eigenvalues --    0.70472   0.70764   0.71337   0.71583   0.71981
  Beta virt. eigenvalues --    0.72843   0.73238   0.73448   0.73781   0.74031
  Beta virt. eigenvalues --    0.74516   0.74866   0.75863   0.75947   0.76514
  Beta virt. eigenvalues --    0.76904   0.77557   0.77774   0.78072   0.78506
  Beta virt. eigenvalues --    0.79328   0.79525   0.80230   0.80415   0.80791
  Beta virt. eigenvalues --    0.81295   0.82587   0.82794   0.83151   0.84038
  Beta virt. eigenvalues --    0.84735   0.85071   0.85692   0.86021   0.86707
  Beta virt. eigenvalues --    0.87159   0.87410   0.88788   0.89009   0.89702
  Beta virt. eigenvalues --    0.90113   0.90437   0.92382   0.92547   0.93442
  Beta virt. eigenvalues --    0.94648   0.94707   0.95856   0.96684   0.96729
  Beta virt. eigenvalues --    0.97363   0.97852   0.98247   0.99389   1.00203
  Beta virt. eigenvalues --    1.00482   1.01037   1.02191   1.02505   1.03348
  Beta virt. eigenvalues --    1.04236   1.05426   1.06601   1.07069   1.08318
  Beta virt. eigenvalues --    1.08664   1.09983   1.11511   1.11783   1.12309
  Beta virt. eigenvalues --    1.13290   1.14368   1.14845   1.16423   1.17599
  Beta virt. eigenvalues --    1.17785   1.18396   1.19511   1.21074   1.22303
  Beta virt. eigenvalues --    1.23163   1.24242   1.25525   1.26224   1.26957
  Beta virt. eigenvalues --    1.27535   1.28868   1.29322   1.29945   1.30730
  Beta virt. eigenvalues --    1.31446   1.32238   1.32780   1.33766   1.34108
  Beta virt. eigenvalues --    1.35084   1.35600   1.36383   1.36889   1.37346
  Beta virt. eigenvalues --    1.37771   1.38133   1.39203   1.39987   1.40859
  Beta virt. eigenvalues --    1.41131   1.41511   1.42916   1.43869   1.44363
  Beta virt. eigenvalues --    1.44763   1.45207   1.45442   1.45805   1.46286
  Beta virt. eigenvalues --    1.46772   1.47584   1.48150   1.48848   1.49548
  Beta virt. eigenvalues --    1.50180   1.50822   1.51033   1.51846   1.52462
  Beta virt. eigenvalues --    1.52862   1.53577   1.54219   1.55213   1.55252
  Beta virt. eigenvalues --    1.55531   1.55953   1.56605   1.57328   1.58086
  Beta virt. eigenvalues --    1.58816   1.59574   1.61372   1.61824   1.62598
  Beta virt. eigenvalues --    1.62796   1.63261   1.63924   1.64231   1.64754
  Beta virt. eigenvalues --    1.65512   1.65933   1.66776   1.66992   1.67366
  Beta virt. eigenvalues --    1.68136   1.68446   1.69174   1.69808   1.70086
  Beta virt. eigenvalues --    1.70749   1.71063   1.71146   1.71310   1.71842
  Beta virt. eigenvalues --    1.72407   1.72948   1.73475   1.74136   1.74526
  Beta virt. eigenvalues --    1.74903   1.74993   1.75472   1.75703   1.76114
  Beta virt. eigenvalues --    1.76309   1.77102   1.77431   1.77652   1.78019
  Beta virt. eigenvalues --    1.78569   1.79119   1.79452   1.79936   1.80276
  Beta virt. eigenvalues --    1.81069   1.81217   1.81951   1.82197   1.83742
  Beta virt. eigenvalues --    1.83943   1.84555   1.85244   1.85677   1.86544
  Beta virt. eigenvalues --    1.86770   1.87041   1.87930   1.88665   1.88705
  Beta virt. eigenvalues --    1.89689   1.90465   1.91243   1.91332   1.91870
  Beta virt. eigenvalues --    1.92423   1.93670   1.94135   1.94823   1.95686
  Beta virt. eigenvalues --    1.96811   1.97345   1.97637   1.99017   1.99814
  Beta virt. eigenvalues --    2.00486   2.00851   2.01419   2.01809   2.02488
  Beta virt. eigenvalues --    2.03445   2.03851   2.04076   2.04743   2.06580
  Beta virt. eigenvalues --    2.06924   2.07801   2.07931   2.08167   2.08573
  Beta virt. eigenvalues --    2.08754   2.09592   2.10348   2.11247   2.11846
  Beta virt. eigenvalues --    2.13261   2.13535   2.15271   2.15517   2.16444
  Beta virt. eigenvalues --    2.16875   2.18772   2.19912   2.20685   2.21196
  Beta virt. eigenvalues --    2.22646   2.23727   2.24854   2.25742   2.26062
  Beta virt. eigenvalues --    2.26299   2.27352   2.27979   2.28528   2.28915
  Beta virt. eigenvalues --    2.29889   2.31012   2.31545   2.33584   2.36231
  Beta virt. eigenvalues --    2.38455   2.38865   2.40657   2.40859   2.41672
  Beta virt. eigenvalues --    2.42024   2.42400   2.42689   2.43490   2.43838
  Beta virt. eigenvalues --    2.44596   2.45844   2.46433   2.47238   2.47633
  Beta virt. eigenvalues --    2.48079   2.48872   2.48930   2.49280   2.50591
  Beta virt. eigenvalues --    2.50951   2.51876   2.52425   2.52964   2.53473
  Beta virt. eigenvalues --    2.54182   2.54476   2.55476   2.56393   2.56818
  Beta virt. eigenvalues --    2.57689   2.58094   2.58189   2.58987   2.59124
  Beta virt. eigenvalues --    2.60358   2.60431   2.61161   2.61299   2.62821
  Beta virt. eigenvalues --    2.64369   2.65899   2.66689   2.68570   2.69342
  Beta virt. eigenvalues --    2.69773   2.70885   2.71732   2.72874   2.73459
  Beta virt. eigenvalues --    2.74316   2.75692   2.77793   2.78656   2.78999
  Beta virt. eigenvalues --    2.81804   2.82546   2.83159   2.83837   2.84924
  Beta virt. eigenvalues --    2.87320   2.89856   2.93908   2.98928   3.00977
  Beta virt. eigenvalues --    3.05329   3.09329   3.12089   3.14724   3.18342
  Beta virt. eigenvalues --    3.50750   3.57370   3.83743  34.90061  34.99283
  Beta virt. eigenvalues --   35.02548  46.00636
          Condensed to atoms (all electrons):
          Atomic-Atomic Spin Densities.
 Mulliken charges and spin densities:
               1          2
     1  H    0.059436  -0.000337
     2  C   -0.112562   0.011591
     3  H    0.061644   0.000620
     4  H    0.105433  -0.000314
     5  H    0.084446   0.001084
     6  O   -0.520158   0.694478
     7  H    0.064238  -0.000012
     8  O   -0.488801  -0.005290
     9  C    0.009751  -0.000843
    10  H    0.050202  -0.000033
    11  H    0.053059   0.004132
    12  C   -0.020086  -0.000174
    13  H    0.104881   0.000028
    14  H    0.065900   0.000068
    15  H    0.080751   0.001072
    16  C   -0.026955   0.002497
    17  H    0.048054   0.000651
    18  H    0.127804  -0.000187
    19  Ru   0.065505   0.282898
    20  H    0.107575  -0.000025
    21  N   -0.389327   0.024785
    22  C    0.136138  -0.001010
    23  C   -0.450608  -0.000076
    24  H    0.042556  -0.000070
    25  H    0.066538  -0.000079
    26  C   -0.041909  -0.000172
    27  C   -0.459599   0.005155
    28  P    0.243473   0.012575
    29  H    0.074787  -0.000290
    30  C    0.002589   0.001839
    31  H    0.095471   0.000407
    32  H    0.065911  -0.000063
    33  H    0.051251   0.000690
    34  C   -0.038868  -0.000789
    35  H    0.047470  -0.000019
    36  C    0.023333  -0.021333
    37  C    0.000617   0.000157
    38  H    0.067977   0.000161
    39  C   -0.027879  -0.000081
    40  H    0.047173  -0.000022
    41  H    0.054961   0.000128
    42  C    0.037398   0.001670
    43  N   -0.327088  -0.008718
    44  C   -0.078265   0.000558
    45  H    0.060762   0.000010
    46  H    0.109520   0.000936
    47  H    0.058917  -0.000101
    48  H    0.065670  -0.000009
    49  C   -0.074112   0.001133
    50  H    0.064569   0.000160
    51  H    0.055939  -0.000070
    52  C    0.061573   0.001485
    53  C   -0.049631  -0.000301
    54  H    0.066844  -0.000025
    55  H    0.035971   0.000116
    56  H    0.125026   0.000153
    57  H    0.098302  -0.000161
    58  C   -0.045501  -0.000498
    59  C    0.086047  -0.000123
    60  H    0.037388  -0.000009
    61  H    0.049334   0.000018
    62  O   -0.173414  -0.009060
    63  H    0.202579  -0.000959
 Sum of Mulliken charges =  -0.00000   1.00000
 Mulliken charges and spin densities with hydrogens summed into heavy atoms:
               1          2
     2  C    0.113951   0.011560
     6  O   -0.520158   0.694478
     8  O   -0.286222  -0.006249
     9  C    0.143562   0.004361
    12  C    0.180462   0.000945
    16  C    0.190218   0.003164
    19  Ru   0.065505   0.282898
    21  N   -0.389327   0.024785
    22  C    0.338729  -0.001488
    23  C   -0.450608  -0.000076
    26  C    0.168984  -0.000257
    27  C   -0.459599   0.005155
    28  P    0.243473   0.012575
    30  C    0.179295   0.002349
    34  C    0.166123   0.000554
    36  C    0.023333  -0.021333
    37  C    0.151199   0.000046
    39  C    0.161904   0.000183
    42  C    0.037398   0.001670
    43  N   -0.327088  -0.008718
    44  C    0.117884   0.000647
    49  C    0.149216   0.001125
    52  C    0.061573   0.001485
    53  C   -0.013660  -0.000186
    58  C   -0.008113  -0.000508
    59  C    0.135381  -0.000105
    62  O   -0.173414  -0.009060
 Electronic spatial extent (au):  <R**2>=           9567.9065
 Charge=             -0.0000 electrons
 Dipole moment (field-independent basis, Debye):
    X=              0.2717    Y=             11.6381    Z=             -5.9592  Tot=             13.0779
 Quadrupole moment (field-independent basis, Debye-Ang):
   XX=           -144.4375   YY=           -183.6231   ZZ=           -197.4391
   XY=             -4.9598   XZ=             -4.6113   YZ=             -4.9162
 Traceless Quadrupole moment (field-independent basis, Debye-Ang):
   XX=             30.7291   YY=             -8.4566   ZZ=            -22.2725
   XY=             -4.9598   XZ=             -4.6113   YZ=             -4.9162
 Octapole moment (field-independent basis, Debye-Ang**2):
  XXX=            -66.6292  YYY=            109.3083  ZZZ=             -0.9337  XYY=            -26.9332
  XXY=             -2.6846  XXZ=              1.1990  XZZ=              9.1200  YZZ=              2.9522
  YYZ=            -33.8535  XYZ=              3.5663
 Hexadecapole moment (field-independent basis, Debye-Ang**3):
 XXXX=          -6598.9722 YYYY=          -3464.3684 ZZZZ=          -2234.9396 XXXY=            -34.9112
 XXXZ=            -35.7226 YYYX=           -103.6646 YYYZ=            -93.7610 ZZZX=            -17.4006
 ZZZY=            -42.5055 XXYY=          -1649.7587 XXZZ=          -1468.6849 YYZZ=           -985.4214
 XXYZ=             15.5917 YYXZ=            -35.8863 ZZXY=             26.7432
 N-N= 3.475613075847D+03 E-N=-1.056495011320D+04  KE= 1.484608843396D+03
 1\1\GINC-NODE248\SP\UPBE1PBE TD-FC\GenECP\C20H36N2O3P1Ru1(2)\JS1212\28
 -May-2020\0\\# genecp pbe1pbe EmpiricalDispersion=GD3BJ scrf=(SMD,solv
 ent=water) td=nstates=25 geom=allcheck\\Title Card Required\\0,2\H,0,-
 0.1736665368,1.6212913294,3.8251032107\C,0,0.8226035548,1.1808631395,3
 .6724204595\H,0,1.2919710344,1.0803838937,4.6633632951\H,0,1.411801244
 5,1.878128695,3.0539193706\H,0,1.4648942869,1.5337265453,-2.0640032362
 \O,0,2.1173850954,2.1204441716,1.049070263\H,0,3.371580163,3.630867775
 8,-1.4037617339\O,0,1.1258488901,-0.0509473707,-0.0626522666\C,0,0.665
 7456286,-0.1428323151,2.9566196692\H,0,1.4821407847,1.2137439311,-3.81
 94046682\H,0,0.1010162618,-0.8663678309,3.5755939634\C,0,2.1119047739,
 1.4634811984,-2.9494162405\H,0,3.8588944633,3.2610885992,0.2513084151\
 H,0,2.5672385251,2.4466481033,-3.139769547\H,0,0.1184350752,-0.0033175
 296,2.013693169\C,0,4.2466049699,3.46668403,-0.7580252864\H,0,4.835103
 6709,4.3992503882,-0.7449736818\H,0,0.8925310993,-1.7873557054,1.11943
 80037\Ru,0,2.9311628615,0.3984527367,0.838398525\H,0,1.7855671225,-0.9
 387538795,-1.6752831681\N,0,1.9522490661,-0.7538678831,2.5499835197\C,
 0,1.6666753148,-2.0326292386,1.867429041\C,0,3.1573334946,0.3644287061
 ,-2.7550410918\H,0,1.8181860496,-1.1556143472,-3.4560983308\H,0,4.7644
 568781,2.9090050743,-3.37377677\C,0,2.4388908661,-0.9776357959,-2.5615
 438805\C,0,5.1313241463,2.3321704208,-1.2874811421\P,0,4.0853700783,0.
 7441666408,-1.1400521245\H,0,1.2859063726,-2.7978376249,2.5634329743\C
 ,0,5.5993471974,2.6737870269,-2.7012556139\H,0,3.1791714662,0.0416059,
 4.0391079515\H,0,1.4885129169,-1.3121432538,5.3363189165\H,0,6.2311691
 571,3.5756579395,-2.6423064103\C,0,2.8809575469,-0.9534029165,3.685793
 8759\H,0,3.4409056247,-0.1946870691,-4.8031899611\C,0,4.3790286751,0.8
 634892499,1.8686208083\C,0,4.0511259285,0.2353675156,-3.9918716302\H,0
 ,6.162332427,1.9359859697,0.6257805883\C,0,6.3814550213,2.2048962283,-
 0.4132767661\H,0,4.4475892355,1.1888885322,-4.3540070947\H,0,6.8847671
 278,3.1853839273,-0.3932344022\C,0,2.8520449154,-2.5341817993,1.100255
 2615\N,0,3.5587645164,-1.5691270361,0.4843246295\C,0,2.3587470565,-1.7
 784810601,4.851922109\H,0,3.1480615544,-1.8170552444,-2.4909898164\H,0
 ,3.7889811764,-1.4186356334,3.2729685068\H,0,6.2066181371,1.8756542239
 ,-3.1524084218\H,0,2.0811587247,-2.8028663288,4.5618439009\C,0,5.27361
 49828,-0.6975485287,-0.9775504037\H,0,3.1525119704,-1.8597822696,5.609
 4826603\H,0,4.8951345777,-0.4540955919,-3.8330773572\C,0,4.5782953672,
 -1.8684191064,-0.3431603275\C,0,3.1790970004,-3.8747911319,0.932050659
 6\H,0,7.1013336658,1.4815452385,-0.8267169347\H,0,2.6027312603,-4.6445
 342708,1.4464106377\H,0,6.0634931046,-0.3507328445,-0.2918085225\H,0,5
 .7579815878,-0.9852392066,-1.9217519717\C,0,4.9380759885,-3.1957750721
 ,-0.5639603482\C,0,4.2357754333,-4.2066730458,0.087080536\H,0,5.762059
 1468,-3.4289449721,-1.2391294731\H,0,4.509035974,-5.2518270975,-0.0680
 395788\O,0,5.2274673456,1.1721802735,2.602953378\H,0,0.7594189538,0.84
 83455959,-0.0181300967\\Version=ES64L-G16RevA.03\State=2-A\HF=-1554.03
 56387\S2=0.759853\S2-1=0.\S2A=0.750057\RMSD=6.323e-09\PG=C01 [X(C20H36
 N2O3P1Ru1)]\\@


 IBM COMPATIBILITY IS LIKE PREGNANCY. YOU ARE OR
 OR YOU ARE NOT. -- ADAM OSBORNE
 Job cpu time:       2 days 20 hours 27 minutes 20.7 seconds.
 Elapsed time:       0 days  4 hours 16 minutes 59.8 seconds.
 File lengths (MBytes):  RWF=   4604 Int=      0 D2E=      0 Chk=    351 Scr=      1
 Normal termination of Gaussian 16 at Thu May 28 01:44:01 2020.
