 Entering Gaussian System, Link 0=g16
 Initial command:
 /cluster/chemistry/gaussian/g16/l1.exe "/scratch/js1212.771177/scratch/Gau-15388.inp" -scrdir="/scratch/js1212.771177/scratch/"
 Entering Link 1 = /cluster/chemistry/gaussian/g16/l1.exe PID=     15389.
  
 Copyright (c) 1988,1990,1992,1993,1995,1998,2003,2009,2016,
            Gaussian, Inc.  All Rights Reserved.
  
 This is part of the Gaussian(R) 16 program.  It is based on
 the Gaussian(R) 09 system (copyright 2009, Gaussian, Inc.),
 the Gaussian(R) 03 system (copyright 2003, Gaussian, Inc.),
 the Gaussian(R) 98 system (copyright 1998, Gaussian, Inc.),
 the Gaussian(R) 94 system (copyright 1995, Gaussian, Inc.),
 the Gaussian 92(TM) system (copyright 1992, Gaussian, Inc.),
 the Gaussian 90(TM) system (copyright 1990, Gaussian, Inc.),
 the Gaussian 88(TM) system (copyright 1988, Gaussian, Inc.),
 the Gaussian 86(TM) system (copyright 1986, Carnegie Mellon
 University), and the Gaussian 82(TM) system (copyright 1983,
 Carnegie Mellon University). Gaussian is a federally registered
 trademark of Gaussian, Inc.
  
 This software contains proprietary and confidential information,
 including trade secrets, belonging to Gaussian, Inc.
  
 This software is provided under written license and may be
 used, copied, transmitted, or stored only in accord with that
 written license.
  
 The following legend is applicable only to US Government
 contracts under FAR:
  
                    RESTRICTED RIGHTS LEGEND
  
 Use, reproduction and disclosure by the US Government is
 subject to restrictions as set forth in subparagraphs (a)
 and (c) of the Commercial Computer Software - Restricted
 Rights clause in FAR 52.227-19.
  
 Gaussian, Inc.
 340 Quinnipiac St., Bldg. 40, Wallingford CT 06492
  
  
 ---------------------------------------------------------------
 Warning -- This program may not be used in any manner that
 competes with the business of Gaussian, Inc. or will provide
 assistance to any competitor of Gaussian, Inc.  The licensee
 of this program is prohibited from giving any competitor of
 Gaussian, Inc. access to this program.  By using this program,
 the user acknowledges that Gaussian, Inc. is engaged in the
 business of creating and licensing software in the field of
 computational chemistry and represents and warrants to the
 licensee that it is not a competitor of Gaussian, Inc. and that
 it will not use this program in any manner prohibited above.
 ---------------------------------------------------------------
  

 Cite this work as:
 Gaussian 16, Revision A.03,
 M. J. Frisch, G. W. Trucks, H. B. Schlegel, G. E. Scuseria, 
 M. A. Robb, J. R. Cheeseman, G. Scalmani, V. Barone, 
 G. A. Petersson, H. Nakatsuji, X. Li, M. Caricato, A. V. Marenich, 
 J. Bloino, B. G. Janesko, R. Gomperts, B. Mennucci, H. P. Hratchian, 
 J. V. Ortiz, A. F. Izmaylov, J. L. Sonnenberg, D. Williams-Young, 
 F. Ding, F. Lipparini, F. Egidi, J. Goings, B. Peng, A. Petrone, 
 T. Henderson, D. Ranasinghe, V. G. Zakrzewski, J. Gao, N. Rega, 
 G. Zheng, W. Liang, M. Hada, M. Ehara, K. Toyota, R. Fukuda, 
 J. Hasegawa, M. Ishida, T. Nakajima, Y. Honda, O. Kitao, H. Nakai, 
 T. Vreven, K. Throssell, J. A. Montgomery, Jr., J. E. Peralta, 
 F. Ogliaro, M. J. Bearpark, J. J. Heyd, E. N. Brothers, K. N. Kudin, 
 V. N. Staroverov, T. A. Keith, R. Kobayashi, J. Normand, 
 K. Raghavachari, A. P. Rendell, J. C. Burant, S. S. Iyengar, 
 J. Tomasi, M. Cossi, J. M. Millam, M. Klene, C. Adamo, R. Cammi, 
 J. W. Ochterski, R. L. Martin, K. Morokuma, O. Farkas, 
 J. B. Foresman, and D. J. Fox, Gaussian, Inc., Wallingford CT, 2016.
 
 ******************************************
 Gaussian 16:  ES64L-G16RevA.03 25-Dec-2016
                28-Aug-2020 
 ******************************************
 %rwf=/scratch/js1212.771177/G-Mono-D-0-GP-SMD.rwf
 %nosave
 %nprocshared=20
 Will use up to   20 processors via shared memory.
 %mem=3000MB
 %oldchk=/data/js1212/200527_g16/G-Mono-D-0-GPOF.chk
 %chk=/scratch/js1212.771177/G-Mono-D-0-GP-SMD.chk
 Copying data from "/data/js1212/200527_g16/G-Mono-D-0-GPOF.chk" to current chk file "/scratch/js1212.771177/G-Mono-D-0-GP-SMD.chk"
 IOpt=  2 FromEx=T IUOpen= 4 IOptOp= 5 NList=   0 IFRang= 0 IUIn= 4 IUOut= 2.
 ----------------------------------------------------------------------
 # genecp pbe1pbe EmpiricalDispersion=GD3BJ scrf=(SMD,solvent=water) ge
 om=allcheck
 ----------------------------------------------------------------------
 1/29=7,38=1,172=1/1;
 2/12=2,40=1/2;
 3/5=7,11=2,14=-4,16=1,17=8,25=1,30=1,70=32201,72=1,74=-13,124=41/1,2,3;
 4//1;
 5/5=2,38=5,53=1/2;
 6/7=2,8=2,9=2,10=2,28=1/1;
 99/5=1,9=1/99;
 Structure from the checkpoint file:  "/scratch/js1212.771177/G-Mono-D-0-GP-SMD.chk"
 -------------------
 Title Card Required
 -------------------
 Charge =  0 Multiplicity = 2
 Redundant internal coordinates found in file.  (old form).
 H,0,-0.1736665368,1.6212913294,3.8251032107
 C,0,0.8226035548,1.1808631395,3.6724204595
 H,0,1.2919710344,1.0803838937,4.6633632951
 H,0,1.4118012445,1.878128695,3.0539193706
 H,0,1.4648942869,1.5337265453,-2.0640032362
 O,0,2.1173850954,2.1204441716,1.049070263
 H,0,3.371580163,3.6308677758,-1.4037617339
 O,0,1.1258488901,-0.0509473707,-0.0626522666
 C,0,0.6657456286,-0.1428323151,2.9566196692
 H,0,1.4821407847,1.2137439311,-3.8194046682
 H,0,0.1010162618,-0.8663678309,3.5755939634
 C,0,2.1119047739,1.4634811984,-2.9494162405
 H,0,3.8588944633,3.2610885992,0.2513084151
 H,0,2.5672385251,2.4466481033,-3.139769547
 H,0,0.1184350752,-0.0033175296,2.013693169
 C,0,4.2466049699,3.46668403,-0.7580252864
 H,0,4.8351036709,4.3992503882,-0.7449736818
 H,0,0.8925310993,-1.7873557054,1.1194380037
 Ru,0,2.9311628615,0.3984527367,0.838398525
 H,0,1.7855671225,-0.9387538795,-1.6752831681
 N,0,1.9522490661,-0.7538678831,2.5499835197
 C,0,1.6666753148,-2.0326292386,1.867429041
 C,0,3.1573334946,0.3644287061,-2.7550410918
 H,0,1.8181860496,-1.1556143472,-3.4560983308
 H,0,4.7644568781,2.9090050743,-3.37377677
 C,0,2.4388908661,-0.9776357959,-2.5615438805
 C,0,5.1313241463,2.3321704208,-1.2874811421
 P,0,4.0853700783,0.7441666408,-1.1400521245
 H,0,1.2859063726,-2.7978376249,2.5634329743
 C,0,5.5993471974,2.6737870269,-2.7012556139
 H,0,3.1791714662,0.0416059,4.0391079515
 H,0,1.4885129169,-1.3121432538,5.3363189165
 H,0,6.2311691571,3.5756579395,-2.6423064103
 C,0,2.8809575469,-0.9534029165,3.6857938759
 H,0,3.4409056247,-0.1946870691,-4.8031899611
 C,0,4.3790286751,0.8634892499,1.8686208083
 C,0,4.0511259285,0.2353675156,-3.9918716302
 H,0,6.162332427,1.9359859697,0.6257805883
 C,0,6.3814550213,2.2048962283,-0.4132767661
 H,0,4.4475892355,1.1888885322,-4.3540070947
 H,0,6.8847671278,3.1853839273,-0.3932344022
 C,0,2.8520449154,-2.5341817993,1.1002552615
 N,0,3.5587645164,-1.5691270361,0.4843246295
 C,0,2.3587470565,-1.7784810601,4.851922109
 H,0,3.1480615544,-1.8170552444,-2.4909898164
 H,0,3.7889811764,-1.4186356334,3.2729685068
 H,0,6.2066181371,1.8756542239,-3.1524084218
 H,0,2.0811587247,-2.8028663288,4.5618439009
 C,0,5.2736149828,-0.6975485287,-0.9775504037
 H,0,3.1525119704,-1.8597822696,5.6094826603
 H,0,4.8951345777,-0.4540955919,-3.8330773572
 C,0,4.5782953672,-1.8684191064,-0.3431603275
 C,0,3.1790970004,-3.8747911319,0.9320506596
 H,0,7.1013336658,1.4815452385,-0.8267169347
 H,0,2.6027312603,-4.6445342708,1.4464106377
 H,0,6.0634931046,-0.3507328445,-0.2918085225
 H,0,5.7579815878,-0.9852392066,-1.9217519717
 C,0,4.9380759885,-3.1957750721,-0.5639603482
 C,0,4.2357754333,-4.2066730458,0.087080536
 H,0,5.7620591468,-3.4289449721,-1.2391294731
 H,0,4.509035974,-5.2518270975,-0.0680395788
 O,0,5.2274673456,1.1721802735,2.602953378
 H,0,0.7594189538,0.8483455959,-0.0181300967
 Recover connectivity data from disk.
                           ----------------------------
                           !    Current Parameters    !
                           ! (Angstroms and Degrees)  !
 --------------------------                            --------------------------
 ! Name  Definition              Value                                          !
 --------------------------------------------------------------------------------
 ! R1    R(1,2)                  1.0999                                         !
 ! R2    R(2,3)                  1.1011                                         !
 ! R3    R(2,4)                  1.1027                                         !
 ! R4    R(2,9)                  1.513                                          !
 ! R5    R(5,12)                 1.0989                                         !
 ! R6    R(6,19)                 1.9162                                         !
 ! R7    R(7,16)                 1.0998                                         !
 ! R8    R(8,19)                 2.0671                                         !
 ! R9    R(8,63)                 0.9721                                         !
 ! R10   R(9,11)                 1.107                                          !
 ! R11   R(9,15)                 1.0991                                         !
 ! R12   R(9,21)                 1.4812                                         !
 ! R13   R(10,12)                1.1027                                         !
 ! R14   R(12,14)                1.1001                                         !
 ! R15   R(12,23)                1.5293                                         !
 ! R16   R(13,16)                1.1006                                         !
 ! R17   R(16,17)                1.1028                                         !
 ! R18   R(16,27)                1.533                                          !
 ! R19   R(18,22)                1.1041                                         !
 ! R20   R(19,28)                2.3165                                         !
 ! R21   R(19,36)                1.8368                                         !
 ! R22   R(19,43)                2.0954                                         !
 ! R23   R(20,26)                1.1017                                         !
 ! R24   R(21,22)                1.4774                                         !
 ! R25   R(21,34)                1.4807                                         !
 ! R26   R(22,29)                1.1022                                         !
 ! R27   R(22,42)                1.4984                                         !
 ! R28   R(23,26)                1.5345                                         !
 ! R29   R(23,28)                1.901                                          !
 ! R30   R(23,37)                1.5314                                         !
 ! R31   R(24,26)                1.1033                                         !
 ! R32   R(25,30)                1.0976                                         !
 ! R33   R(26,45)                1.1011                                         !
 ! R34   R(27,28)                1.9072                                         !
 ! R35   R(27,30)                1.5279                                         !
 ! R36   R(27,39)                1.5308                                         !
 ! R37   R(28,49)                1.8753                                         !
 ! R38   R(30,33)                1.1027                                         !
 ! R39   R(30,47)                1.0997                                         !
 ! R40   R(31,34)                1.0972                                         !
 ! R41   R(32,44)                1.0997                                         !
 ! R42   R(34,44)                1.521                                          !
 ! R43   R(34,46)                1.1006                                         !
 ! R44   R(35,37)                1.1025                                         !
 ! R45   R(36,62)                1.1638                                         !
 ! R46   R(37,40)                1.0943                                         !
 ! R47   R(37,51)                1.1013                                         !
 ! R48   R(38,39)                1.0954                                         !
 ! R49   R(39,41)                1.1023                                         !
 ! R50   R(39,54)                1.1011                                         !
 ! R51   R(42,43)                1.3454                                         !
 ! R52   R(42,53)                1.3901                                         !
 ! R53   R(43,52)                1.3468                                         !
 ! R54   R(44,48)                1.1003                                         !
 ! R55   R(44,50)                1.1003                                         !
 ! R56   R(49,52)                1.5023                                         !
 ! R57   R(49,56)                1.102                                          !
 ! R58   R(49,57)                1.0995                                         !
 ! R59   R(52,58)                1.3929                                         !
 ! R60   R(53,55)                1.0905                                         !
 ! R61   R(53,59)                1.3931                                         !
 ! R62   R(58,59)                1.3925                                         !
 ! R63   R(58,60)                1.0905                                         !
 ! R64   R(59,61)                1.0914                                         !
 ! A1    A(1,2,3)              107.3207                                         !
 ! A2    A(1,2,4)              107.9774                                         !
 ! A3    A(1,2,9)              108.7891                                         !
 ! A4    A(3,2,4)              109.5565                                         !
 ! A5    A(3,2,9)              112.9631                                         !
 ! A6    A(4,2,9)              110.0754                                         !
 ! A7    A(19,8,63)             96.2069                                         !
 ! A8    A(2,9,11)             111.1104                                         !
 ! A9    A(2,9,15)             110.2695                                         !
 ! A10   A(2,9,21)             113.6259                                         !
 ! A11   A(11,9,15)            107.975                                          !
 ! A12   A(11,9,21)            109.0844                                         !
 ! A13   A(15,9,21)            104.4389                                         !
 ! A14   A(5,12,10)            108.2961                                         !
 ! A15   A(5,12,14)            109.0262                                         !
 ! A16   A(5,12,23)            110.2453                                         !
 ! A17   A(10,12,14)           107.5952                                         !
 ! A18   A(10,12,23)           109.1444                                         !
 ! A19   A(14,12,23)           112.4168                                         !
 ! A20   A(7,16,13)            106.622                                          !
 ! A21   A(7,16,17)            107.7748                                         !
 ! A22   A(7,16,27)            111.5216                                         !
 ! A23   A(13,16,17)           109.5783                                         !
 ! A24   A(13,16,27)           112.4439                                         !
 ! A25   A(17,16,27)           108.7796                                         !
 ! A26   A(6,19,8)              82.669                                          !
 ! A27   A(6,19,28)             99.8684                                         !
 ! A28   A(6,19,36)             92.6122                                         !
 ! A29   A(8,19,28)             95.4692                                         !
 ! A30   A(8,19,43)             89.0707                                         !
 ! A31   A(28,19,36)            92.7796                                         !
 ! A32   A(28,19,43)            81.1748                                         !
 ! A33   A(36,19,43)            95.5328                                         !
 ! A34   A(9,21,22)            108.4225                                         !
 ! A35   A(9,21,34)            112.9415                                         !
 ! A36   A(22,21,34)           111.0386                                         !
 ! A37   A(18,22,21)           104.8476                                         !
 ! A38   A(18,22,29)           109.8647                                         !
 ! A39   A(18,22,42)           106.3906                                         !
 ! A40   A(21,22,29)           112.0824                                         !
 ! A41   A(21,22,42)           111.9224                                         !
 ! A42   A(29,22,42)           111.3583                                         !
 ! A43   A(12,23,26)           108.9362                                         !
 ! A44   A(12,23,28)           107.347                                          !
 ! A45   A(12,23,37)           110.9097                                         !
 ! A46   A(26,23,28)           107.2264                                         !
 ! A47   A(26,23,37)           107.5408                                         !
 ! A48   A(28,23,37)           114.7112                                         !
 ! A49   A(20,26,23)           110.3776                                         !
 ! A50   A(20,26,24)           108.9244                                         !
 ! A51   A(20,26,45)           110.9326                                         !
 ! A52   A(23,26,24)           107.593                                          !
 ! A53   A(23,26,45)           111.9168                                         !
 ! A54   A(24,26,45)           106.9366                                         !
 ! A55   A(16,27,28)           105.8423                                         !
 ! A56   A(16,27,30)           109.3223                                         !
 ! A57   A(16,27,39)           109.609                                          !
 ! A58   A(28,27,30)           115.1935                                         !
 ! A59   A(28,27,39)           109.5422                                         !
 ! A60   A(30,27,39)           107.269                                          !
 ! A61   A(19,28,23)           116.9067                                         !
 ! A62   A(19,28,27)           117.6158                                         !
 ! A63   A(19,28,49)            97.2943                                         !
 ! A64   A(23,28,27)           111.6163                                         !
 ! A65   A(23,28,49)           103.2602                                         !
 ! A66   A(27,28,49)           107.4165                                         !
 ! A67   A(25,30,27)           112.4499                                         !
 ! A68   A(25,30,33)           107.0566                                         !
 ! A69   A(25,30,47)           108.9183                                         !
 ! A70   A(27,30,33)           107.9928                                         !
 ! A71   A(27,30,47)           112.7361                                         !
 ! A72   A(33,30,47)           107.4039                                         !
 ! A73   A(21,34,31)           107.1748                                         !
 ! A74   A(21,34,44)           116.4801                                         !
 ! A75   A(21,34,46)           106.6607                                         !
 ! A76   A(31,34,44)           109.7784                                         !
 ! A77   A(31,34,46)           106.2532                                         !
 ! A78   A(44,34,46)           109.9705                                         !
 ! A79   A(23,37,35)           107.7077                                         !
 ! A80   A(23,37,40)           113.9086                                         !
 ! A81   A(23,37,51)           112.5557                                         !
 ! A82   A(35,37,40)           107.2704                                         !
 ! A83   A(35,37,51)           106.6228                                         !
 ! A84   A(40,37,51)           108.3942                                         !
 ! A85   A(27,39,38)           113.4999                                         !
 ! A86   A(27,39,41)           108.0181                                         !
 ! A87   A(27,39,54)           111.9696                                         !
 ! A88   A(38,39,41)           107.0043                                         !
 ! A89   A(38,39,54)           109.0062                                         !
 ! A90   A(41,39,54)           107.0166                                         !
 ! A91   A(22,42,43)           114.1946                                         !
 ! A92   A(22,42,53)           124.8106                                         !
 ! A93   A(43,42,53)           120.8478                                         !
 ! A94   A(19,43,42)           116.0307                                         !
 ! A95   A(19,43,52)           122.6323                                         !
 ! A96   A(42,43,52)           121.3007                                         !
 ! A97   A(32,44,34)           112.2945                                         !
 ! A98   A(32,44,48)           108.1369                                         !
 ! A99   A(32,44,50)           107.3939                                         !
 ! A100  A(34,44,48)           112.9265                                         !
 ! A101  A(34,44,50)           108.6802                                         !
 ! A102  A(48,44,50)           107.1422                                         !
 ! A103  A(28,49,52)           110.0297                                         !
 ! A104  A(28,49,56)           105.4341                                         !
 ! A105  A(28,49,57)           113.9459                                         !
 ! A106  A(52,49,56)           108.3161                                         !
 ! A107  A(52,49,57)           111.2602                                         !
 ! A108  A(56,49,57)           107.5154                                         !
 ! A109  A(43,52,49)           115.8897                                         !
 ! A110  A(43,52,58)           120.313                                          !
 ! A111  A(49,52,58)           123.7964                                         !
 ! A112  A(42,53,55)           119.9523                                         !
 ! A113  A(42,53,59)           118.7893                                         !
 ! A114  A(55,53,59)           121.2528                                         !
 ! A115  A(52,58,59)           119.1722                                         !
 ! A116  A(52,58,60)           119.8076                                         !
 ! A117  A(59,58,60)           121.0202                                         !
 ! A118  A(53,59,58)           119.5507                                         !
 ! A119  A(53,59,61)           120.2834                                         !
 ! A120  A(58,59,61)           120.1652                                         !
 ! A121  L(6,19,43,8,-1)       171.7397                                         !
 ! A122  L(8,19,36,6,-1)       175.2812                                         !
 ! A123  L(19,36,62,1,-1)      174.7666                                         !
 ! A124  L(6,19,43,8,-2)       180.3236                                         !
 ! A125  L(8,19,36,6,-2)       172.41                                           !
 ! A126  L(19,36,62,1,-2)      179.041                                          !
 ! D1    D(1,2,9,11)           -63.5077                                         !
 ! D2    D(1,2,9,15)            56.1766                                         !
 ! D3    D(1,2,9,21)           173.0274                                         !
 ! D4    D(3,2,9,11)            55.5505                                         !
 ! D5    D(3,2,9,15)           175.2348                                         !
 ! D6    D(3,2,9,21)           -67.9144                                         !
 ! D7    D(4,2,9,11)           178.3644                                         !
 ! D8    D(4,2,9,15)           -61.9513                                         !
 ! D9    D(4,2,9,21)            54.8995                                         !
 ! D10   D(63,8,19,6)            4.7271                                         !
 ! D11   D(63,8,19,28)         -94.5536                                         !
 ! D12   D(63,8,19,43)        -175.5964                                         !
 ! D13   D(2,9,21,22)          179.9488                                         !
 ! D14   D(2,9,21,34)           56.453                                          !
 ! D15   D(11,9,21,22)          55.3854                                         !
 ! D16   D(11,9,21,34)         -68.1104                                         !
 ! D17   D(15,9,21,22)         -59.8465                                         !
 ! D18   D(15,9,21,34)         176.6577                                         !
 ! D19   D(5,12,23,26)          60.7475                                         !
 ! D20   D(5,12,23,28)         -55.0492                                         !
 ! D21   D(5,12,23,37)         178.9227                                         !
 ! D22   D(10,12,23,26)        -58.0834                                         !
 ! D23   D(10,12,23,28)       -173.88                                           !
 ! D24   D(10,12,23,37)         60.0918                                         !
 ! D25   D(14,12,23,26)       -177.381                                          !
 ! D26   D(14,12,23,28)         66.8223                                         !
 ! D27   D(14,12,23,37)        -59.2058                                         !
 ! D28   D(7,16,27,28)         -65.8048                                         !
 ! D29   D(7,16,27,30)          58.8335                                         !
 ! D30   D(7,16,27,39)         176.1472                                         !
 ! D31   D(13,16,27,28)         53.9036                                         !
 ! D32   D(13,16,27,30)        178.5419                                         !
 ! D33   D(13,16,27,39)        -64.1444                                         !
 ! D34   D(17,16,27,28)        175.4642                                         !
 ! D35   D(17,16,27,30)        -59.8975                                         !
 ! D36   D(17,16,27,39)         57.4162                                         !
 ! D37   D(6,19,28,23)         -89.2194                                         !
 ! D38   D(6,19,28,27)          47.8099                                         !
 ! D39   D(6,19,28,49)         161.8589                                         !
 ! D40   D(8,19,28,23)          -5.7339                                         !
 ! D41   D(8,19,28,27)         131.2955                                         !
 ! D42   D(8,19,28,49)        -114.6555                                         !
 ! D43   D(36,19,28,23)        177.6415                                         !
 ! D44   D(36,19,28,27)        -45.3292                                         !
 ! D45   D(36,19,28,49)         68.7198                                         !
 ! D46   D(43,19,28,23)         82.4694                                         !
 ! D47   D(43,19,28,27)       -140.5013                                         !
 ! D48   D(43,19,28,49)        -26.4523                                         !
 ! D49   D(8,19,43,42)         -62.9902                                         !
 ! D50   D(8,19,43,52)         114.8417                                         !
 ! D51   D(28,19,43,42)       -158.6709                                         !
 ! D52   D(28,19,43,52)         19.1611                                         !
 ! D53   D(36,19,43,42)        109.3655                                         !
 ! D54   D(36,19,43,52)        -72.8025                                         !
 ! D55   D(9,21,22,18)          49.4942                                         !
 ! D56   D(9,21,22,29)         -69.6441                                         !
 ! D57   D(9,21,22,42)         164.4157                                         !
 ! D58   D(34,21,22,18)        174.1265                                         !
 ! D59   D(34,21,22,29)         54.9883                                         !
 ! D60   D(34,21,22,42)        -70.9519                                         !
 ! D61   D(9,21,34,31)         -67.1576                                         !
 ! D62   D(9,21,34,44)          56.1854                                         !
 ! D63   D(9,21,34,46)         179.3719                                         !
 ! D64   D(22,21,34,31)        170.8045                                         !
 ! D65   D(22,21,34,44)        -65.8525                                         !
 ! D66   D(22,21,34,46)         57.334                                          !
 ! D67   D(18,22,42,43)         75.6531                                         !
 ! D68   D(18,22,42,53)        -99.9528                                         !
 ! D69   D(21,22,42,43)        -38.3195                                         !
 ! D70   D(21,22,42,53)        146.0746                                         !
 ! D71   D(29,22,42,43)       -164.6547                                         !
 ! D72   D(29,22,42,53)         19.7394                                         !
 ! D73   D(12,23,26,20)        -60.1373                                         !
 ! D74   D(12,23,26,24)         58.5958                                         !
 ! D75   D(12,23,26,45)        175.7889                                         !
 ! D76   D(28,23,26,20)         55.7369                                         !
 ! D77   D(28,23,26,24)        174.4699                                         !
 ! D78   D(28,23,26,45)        -68.337                                          !
 ! D79   D(37,23,26,20)        179.5872                                         !
 ! D80   D(37,23,26,24)        -61.6798                                         !
 ! D81   D(37,23,26,45)         55.5133                                         !
 ! D82   D(12,23,28,19)         72.2332                                         !
 ! D83   D(12,23,28,27)        -67.2509                                         !
 ! D84   D(12,23,28,49)        177.6518                                         !
 ! D85   D(26,23,28,19)        -44.6901                                         !
 ! D86   D(26,23,28,27)        175.8258                                         !
 ! D87   D(26,23,28,49)         60.7285                                         !
 ! D88   D(37,23,28,19)       -164.0327                                         !
 ! D89   D(37,23,28,27)         56.4833                                         !
 ! D90   D(37,23,28,49)        -58.6141                                         !
 ! D91   D(12,23,37,35)        -70.29                                           !
 ! D92   D(12,23,37,40)         48.5552                                         !
 ! D93   D(12,23,37,51)        172.4655                                         !
 ! D94   D(26,23,37,35)         48.7287                                         !
 ! D95   D(26,23,37,40)        167.574                                          !
 ! D96   D(26,23,37,51)        -68.5158                                         !
 ! D97   D(28,23,37,35)        167.8956                                         !
 ! D98   D(28,23,37,40)        -73.2592                                         !
 ! D99   D(28,23,37,51)         50.6511                                         !
 ! D100  D(16,27,28,19)        -45.3916                                         !
 ! D101  D(16,27,28,23)         93.7785                                         !
 ! D102  D(16,27,28,49)       -153.7091                                         !
 ! D103  D(30,27,28,19)       -166.2952                                         !
 ! D104  D(30,27,28,23)        -27.1251                                         !
 ! D105  D(30,27,28,49)         85.3874                                         !
 ! D106  D(39,27,28,19)         72.701                                          !
 ! D107  D(39,27,28,23)       -148.1289                                         !
 ! D108  D(39,27,28,49)        -35.6165                                         !
 ! D109  D(16,27,30,25)        -54.0256                                         !
 ! D110  D(16,27,30,33)         63.8714                                         !
 ! D111  D(16,27,30,47)       -177.6337                                         !
 ! D112  D(28,27,30,25)         64.9635                                         !
 ! D113  D(28,27,30,33)       -177.1396                                         !
 ! D114  D(28,27,30,47)        -58.6446                                         !
 ! D115  D(39,27,30,25)       -172.8039                                         !
 ! D116  D(39,27,30,33)        -54.9069                                         !
 ! D117  D(39,27,30,47)         63.588                                          !
 ! D118  D(16,27,39,38)         62.777                                          !
 ! D119  D(16,27,39,41)        -55.6975                                         !
 ! D120  D(16,27,39,54)       -173.2819                                         !
 ! D121  D(28,27,39,38)        -52.9425                                         !
 ! D122  D(28,27,39,41)       -171.417                                          !
 ! D123  D(28,27,39,54)         70.9986                                         !
 ! D124  D(30,27,39,38)       -178.6299                                         !
 ! D125  D(30,27,39,41)         62.8956                                         !
 ! D126  D(30,27,39,54)        -54.6889                                         !
 ! D127  D(19,28,49,52)         36.2964                                         !
 ! D128  D(19,28,49,56)        -80.2968                                         !
 ! D129  D(19,28,49,57)        162.0425                                         !
 ! D130  D(23,28,49,52)        -83.6303                                         !
 ! D131  D(23,28,49,56)        159.7764                                         !
 ! D132  D(23,28,49,57)         42.1157                                         !
 ! D133  D(27,28,49,52)        158.2971                                         !
 ! D134  D(27,28,49,56)         41.7039                                         !
 ! D135  D(27,28,49,57)        -75.9568                                         !
 ! D136  D(21,34,44,32)        -62.3174                                         !
 ! D137  D(21,34,44,48)         60.2788                                         !
 ! D138  D(21,34,44,50)        179.0178                                         !
 ! D139  D(31,34,44,32)         59.6684                                         !
 ! D140  D(31,34,44,48)       -177.7354                                         !
 ! D141  D(31,34,44,50)        -58.9963                                         !
 ! D142  D(46,34,44,32)        176.2282                                         !
 ! D143  D(46,34,44,48)        -61.1756                                         !
 ! D144  D(46,34,44,50)         57.5634                                         !
 ! D145  D(22,42,43,19)          4.0043                                         !
 ! D146  D(22,42,43,52)       -173.8589                                         !
 ! D147  D(53,42,43,19)        179.8024                                         !
 ! D148  D(53,42,43,52)          1.9392                                         !
 ! D149  D(22,42,53,55)         -5.2973                                         !
 ! D150  D(22,42,53,59)        173.8519                                         !
 ! D151  D(43,42,53,55)        179.3719                                         !
 ! D152  D(43,42,53,59)         -1.479                                          !
 ! D153  D(19,43,52,49)          1.6122                                         !
 ! D154  D(19,43,52,58)       -178.7171                                         !
 ! D155  D(42,43,52,49)        179.3322                                         !
 ! D156  D(42,43,52,58)         -0.9971                                         !
 ! D157  D(28,49,52,43)        -27.9222                                         !
 ! D158  D(28,49,52,58)        152.4198                                         !
 ! D159  D(56,49,52,43)         86.853                                          !
 ! D160  D(56,49,52,58)        -92.805                                          !
 ! D161  D(57,49,52,43)       -155.1794                                         !
 ! D162  D(57,49,52,58)         25.1626                                         !
 ! D163  D(43,52,58,59)         -0.3658                                         !
 ! D164  D(43,52,58,60)        179.7257                                         !
 ! D165  D(49,52,58,59)        179.2777                                         !
 ! D166  D(49,52,58,60)         -0.6307                                         !
 ! D167  D(42,53,59,58)          0.1236                                         !
 ! D168  D(42,53,59,61)       -179.5816                                         !
 ! D169  D(55,53,59,58)        179.2612                                         !
 ! D170  D(55,53,59,61)         -0.4439                                         !
 ! D171  D(52,58,59,53)          0.7741                                         !
 ! D172  D(52,58,59,61)       -179.5204                                         !
 ! D173  D(60,58,59,53)       -179.3186                                         !
 ! D174  D(60,58,59,61)          0.3869                                         !
 --------------------------------------------------------------------------------
 Stoichiometry    C20H36N2O3PRu(2)
 Framework group  C1[X(C20H36N2O3PRu)]
 Deg. of freedom   183
 Full point group                 C1      NOp   1
 Largest Abelian subgroup         C1      NOp   1
 Largest concise Abelian subgroup C1      NOp   1
                         Standard orientation:                         
 ---------------------------------------------------------------------
 Center     Atomic      Atomic             Coordinates (Angstroms)
 Number     Number       Type             X           Y           Z
 ---------------------------------------------------------------------
      1          1           0       -3.521465   -3.331803    1.914756
      2          6           0       -3.212729   -2.739245    1.041029
      3          1           0       -3.905990   -2.979921    0.220155
      4          1           0       -2.191157   -3.048290    0.763975
      5          1           0        1.938257   -0.693284    2.691784
      6          8           0       -0.164591   -2.377542    0.902228
      7          1           0        2.965314   -2.607302    0.755019
      8          8           0       -0.511427   -0.095343    2.169226
      9          6           0       -3.228181   -1.273565    1.416112
     10          1           0        3.269956    0.297602    3.346645
     11          1           0       -4.252134   -0.937616    1.669512
     12          6           0        2.882370   -0.191692    2.437679
     13          1           0        1.614189   -2.865208   -0.350157
     14          1           0        3.618340   -0.948307    2.127739
     15          1           0       -2.587142   -1.097749    2.291488
     16          6           0        2.681297   -2.599124   -0.307463
     17          1           0        3.275965   -3.373048   -0.820875
     18          1           0       -2.304734    0.980167    1.862280
     19         44           0       -0.409862   -0.622549    0.173042
     20          1           0        0.700349    1.439405    2.156697
     21          7           0       -2.673066   -0.386672    0.367743
     22          6           0       -2.744641    1.007940    0.850025
     23          6           0        2.645644    0.867334    1.360162
     24          1           0        2.101880    2.348807    2.810985
     25          1           0        4.812598   -0.983976    0.212334
     26          6           0        1.660583    1.913694    1.898235
     27          6           0        2.972370   -1.241338   -0.956976
     28         15           0        1.802649    0.003250   -0.108293
     29          1           0       -3.782482    1.375459    0.902622
     30          6           0        4.461919   -0.927273   -0.826157
     31          1           0       -3.128098   -1.538563   -1.312050
     32          1           0       -5.392323   -1.049300   -0.308242
     33          1           0        5.021525   -1.685842   -1.398397
     34          6           0       -3.359461   -0.534179   -0.935899
     35          1           0        4.218570    2.227029    1.875010
     36          6           0       -0.540360   -1.262668   -1.543684
     37          6           0        3.947877    1.594766    1.013313
     38          1           0        1.595232   -1.505928   -2.664018
     39          6           0        2.651591   -1.307839   -2.452282
     40          1           0        4.792628    0.925582    0.823272
     41          1           0        3.229186   -2.139336   -2.888260
     42          6           0       -1.881274    1.925413    0.038821
     43          7           0       -0.706858    1.387784   -0.337819
     44          6           0       -4.864976   -0.317998   -0.937941
     45          1           0        1.511746    2.741695    1.187751
     46          1           0       -2.877265    0.172664   -1.628166
     47          1           0        4.726529    0.057217   -1.238582
     48          1           0       -5.153592    0.690642   -0.606411
     49          6           0        1.501745    1.404978   -1.317215
     50          1           0       -5.237155   -0.440304   -1.966092
     51          1           0        3.837827    2.269390    0.149775
     52          6           0        0.230219    2.123639   -0.965636
     53          6           0       -2.181262    3.252783   -0.245054
     54          1           0        2.957429   -0.391326   -2.980355
     55          1           0       -3.141834    3.670745    0.058058
     56          1           0        1.366620    0.922025   -2.298505
     57          1           0        2.344198    2.105825   -1.406536
     58          6           0       -0.008504    3.464227   -1.258726
     59          6           0       -1.229624    4.030100   -0.901447
     60          1           0        0.757798    4.053573   -1.763328
     61          1           0       -1.436849    5.076894   -1.130273
     62          8           0       -0.710292   -1.722574   -2.599143
     63          1           0       -0.307399   -0.978066    2.521579
 ---------------------------------------------------------------------
 Rotational constants (GHZ):           0.2481000           0.1586113           0.1333186
 General basis read from cards:  (5D, 7F)
 ======================================================================================================
                                       Pseudopotential Parameters
 ======================================================================================================
  Center     Atomic      Valence      Angular      Power
  Number     Number     Electrons     Momentum     of R      Exponent        Coefficient   SO-Coeffient
 ======================================================================================================
    1          1
                                   No pseudopotential on this center.
    2          6
                                   No pseudopotential on this center.
    3          1
                                   No pseudopotential on this center.
    4          1
                                   No pseudopotential on this center.
    5          1
                                   No pseudopotential on this center.
    6          8
                                   No pseudopotential on this center.
    7          1
                                   No pseudopotential on this center.
    8          8
                                   No pseudopotential on this center.
    9          6
                                   No pseudopotential on this center.
   10          1
                                   No pseudopotential on this center.
   11          1
                                   No pseudopotential on this center.
   12          6
                                   No pseudopotential on this center.
   13          1
                                   No pseudopotential on this center.
   14          1
                                   No pseudopotential on this center.
   15          1
                                   No pseudopotential on this center.
   16          6
                                   No pseudopotential on this center.
   17          1
                                   No pseudopotential on this center.
   18          1
                                   No pseudopotential on this center.
   19         44           16
                                      G and up 
                                                     2        1.0000000        0.00000000    0.00000000
                                      S - G
                                                     2       11.1052690      209.82297100    0.00000000
                                                     2        5.4147450       30.65472600    0.00000000
                                      P - G
                                                     2        9.7712710      146.33618200    0.00000000
                                                     2        5.0739910       24.12787700    0.00000000
                                      D - G
                                                     2        7.6714230       67.51589700    0.00000000
                                                     2        4.1365650        9.87010400    0.00000000
                                      F - G
                                                     2       11.3600000      -28.34061600    0.00000000
                                                     2        5.6800000       -4.94462900    0.00000000
   20          1
                                   No pseudopotential on this center.
   21          7
                                   No pseudopotential on this center.
   22          6
                                   No pseudopotential on this center.
   23          6
                                   No pseudopotential on this center.
   24          1
                                   No pseudopotential on this center.
   25          1
                                   No pseudopotential on this center.
   26          6
                                   No pseudopotential on this center.
   27          6
                                   No pseudopotential on this center.
   28         15
                                   No pseudopotential on this center.
   29          1
                                   No pseudopotential on this center.
   30          6
                                   No pseudopotential on this center.
   31          1
                                   No pseudopotential on this center.
   32          1
                                   No pseudopotential on this center.
   33          1
                                   No pseudopotential on this center.
   34          6
                                   No pseudopotential on this center.
   35          1
                                   No pseudopotential on this center.
   36          6
                                   No pseudopotential on this center.
   37          6
                                   No pseudopotential on this center.
   38          1
                                   No pseudopotential on this center.
   39          6
                                   No pseudopotential on this center.
   40          1
                                   No pseudopotential on this center.
   41          1
                                   No pseudopotential on this center.
   42          6
                                   No pseudopotential on this center.
   43          7
                                   No pseudopotential on this center.
   44          6
                                   No pseudopotential on this center.
   45          1
                                   No pseudopotential on this center.
   46          1
                                   No pseudopotential on this center.
   47          1
                                   No pseudopotential on this center.
   48          1
                                   No pseudopotential on this center.
   49          6
                                   No pseudopotential on this center.
   50          1
                                   No pseudopotential on this center.
   51          1
                                   No pseudopotential on this center.
   52          6
                                   No pseudopotential on this center.
   53          6
                                   No pseudopotential on this center.
   54          1
                                   No pseudopotential on this center.
   55          1
                                   No pseudopotential on this center.
   56          1
                                   No pseudopotential on this center.
   57          1
                                   No pseudopotential on this center.
   58          6
                                   No pseudopotential on this center.
   59          6
                                   No pseudopotential on this center.
   60          1
                                   No pseudopotential on this center.
   61          1
                                   No pseudopotential on this center.
   62          8
                                   No pseudopotential on this center.
   63          1
                                   No pseudopotential on this center.
 ======================================================================================================
 There are  1493 symmetry adapted cartesian basis functions of A   symmetry.
 There are  1324 symmetry adapted basis functions of A   symmetry.
  1324 basis functions,  2072 primitive gaussians,  1493 cartesian basis functions
   113 alpha electrons      112 beta electrons
       nuclear repulsion energy      3475.6921212532 Hartrees.
 NAtoms=   63 NActive=   63 NUniq=   63 SFac= 1.00D+00 NAtFMM=   60 NAOKFM=T Big=T
 Integral buffers will be    131072 words long.
 Raffenetti 2 integral format.
 Two-electron integral symmetry is turned on.
 Nuclear repulsion after empirical dispersion term =     3475.5962266652 Hartrees.
 ------------------------------------------------------------------------------
 Polarizable Continuum Model (PCM)
 =================================
 Model                : PCM.
 Atomic radii         : SMD-Coulomb.
 Polarization charges : Total charges.
 Charge compensation  : None.
 Solution method      : On-the-fly selection.
 Cavity type          : VdW (van der Waals Surface) (Alpha=1.000).
 Cavity algorithm     : GePol (No added spheres)
                        Default sphere list used, NSphG=   63.
                        Lebedev-Laikov grids with approx.  5.0 points / Ang**2.
                        Smoothing algorithm: York/Karplus (Gamma=1.0000).
                        Polarization charges: spherical gaussians, with
                                              point-specific exponents (IZeta= 3).
                        Self-potential: point-specific (ISelfS= 7).
                        Self-field    : sphere-specific E.n sum rule (ISelfD= 2).
 Solvent              : Water, Eps=  78.355300 Eps(inf)=   1.777849
 ------------------------------------------------------------------------------
 ------------------------------------------------------------------------------
 Atomic radii for non-electrostatic terms: SMD-CDS.
 ------------------------------------------------------------------------------
 Nuclear repulsion after PCM non-electrostatic terms =     3475.6130758469 Hartrees.
 One-electron integrals computed using PRISM.
   1 Symmetry operations used in ECPInt.
 ECPInt:  NShTT=  121278 NPrTT=  436029 LenC2=  104518 LenP2D=  245437.
 LDataN:  DoStor=T MaxTD1= 7 Len=  274
 Number of processors reduced to  11 by ecpmxn.
 NBasis=  1324 RedAO= T EigKep=  3.86D-05  NBF=  1324
 NBsUse=  1324 1.00D-06 EigRej= -1.00D+00 NBFU=  1324
 Defaulting to unpruned grid for atomic number  44.
 ExpMin= 1.60D-02 ExpMax= 3.12D+05 ExpMxC= 9.87D+02 IAcc=3 IRadAn=         5 AccDes= 0.00D+00
 Harris functional with IExCor= 1009 and IRadAn=       5 diagonalized for initial guess.
 HarFok:  IExCor= 1009 AccDes= 0.00D+00 IRadAn=         5 IDoV= 1 UseB2=F ITyADJ=14
 ICtDFT=  3500011 ScaDFX=  1.000000  1.000000  1.000000  1.000000
 Defaulting to unpruned grid for atomic number  44.
 FoFCou: FMM=F IPFlag=           0 FMFlag=      100000 FMFlg1=        2001
         NFxFlg=           0 DoJE=T BraDBF=F KetDBF=T FulRan=T
         wScrn=  0.000000 ICntrl=       500 IOpCl=  0 I1Cent=   200000004 NGrid=           0
         NMat0=    1 NMatS0=      1 NMatT0=    0 NMatD0=    1 NMtDS0=    0 NMtDT0=    0
 Petite list used in FoFCou.
 Initial guess <Sx>= 0.0000 <Sy>= 0.0000 <Sz>= 0.5000 <S**2>= 0.7500 S= 0.5000
 Requested convergence on RMS density matrix=1.00D-08 within 128 cycles.
 Requested convergence on MAX density matrix=1.00D-06.
 Requested convergence on             energy=1.00D-06.
 No special actions if energy rises.
 Defaulting to unpruned grid for atomic number  44.
 Defaulting to unpruned grid for atomic number  44.
 Defaulting to unpruned grid for atomic number  44.
 Defaulting to unpruned grid for atomic number  44.
 Defaulting to unpruned grid for atomic number  44.
 Defaulting to unpruned grid for atomic number  44.
 Defaulting to unpruned grid for atomic number  44.
 Defaulting to unpruned grid for atomic number  44.
 Defaulting to unpruned grid for atomic number  44.
 Defaulting to unpruned grid for atomic number  44.
 Defaulting to unpruned grid for atomic number  44.
 Defaulting to unpruned grid for atomic number  44.
 Defaulting to unpruned grid for atomic number  44.
 Defaulting to unpruned grid for atomic number  44.
 Defaulting to unpruned grid for atomic number  44.
 Defaulting to unpruned grid for atomic number  44.
 Defaulting to unpruned grid for atomic number  44.
 Defaulting to unpruned grid for atomic number  44.
 Defaulting to unpruned grid for atomic number  44.
 Defaulting to unpruned grid for atomic number  44.
 Inv3:  Mode=1 IEnd=    46736427.
 Iteration    1 A*A^-1 deviation from unit magnitude is 5.33D-15 for   3937.
 Iteration    1 A*A^-1 deviation from orthogonality  is 6.95D-15 for   3902   1760.
 Iteration    1 A^-1*A deviation from unit magnitude is 5.33D-15 for   3937.
 Iteration    1 A^-1*A deviation from orthogonality  is 5.58D-14 for   2935   2905.
 EnCoef did   100 forward-backward iterations
 Restarting incremental Fock formation.
 Error on total polarization charges =  0.07986
 SCF Done:  E(UPBE1PBE) =  -1554.35102955     A.U. after   24 cycles
            NFock= 24  Conv=0.26D-08     -V/T= 2.0472
 <Sx>= 0.0000 <Sy>= 0.0000 <Sz>= 0.5000 <S**2>= 0.7603 S= 0.5051
 <L.S>= 0.000000000000E+00
 SMD-CDS (non-electrostatic) energy       (kcal/mol) =      10.57
 (included in total energy above)
 Annihilation of the first spin contaminant:
 S**2 before annihilation     0.7603,   after     0.7501

 **********************************************************************

            Population analysis using the SCF density.

 **********************************************************************

 Orbital symmetries:
 Alpha Orbitals:
       Occupied  (A) (A) (A) (A) (A) (A) (A) (A) (A) (A) (A) (A)
                 (A) (A) (A) (A) (A) (A) (A) (A) (A) (A) (A) (A)
                 (A) (A) (A) (A) (A) (A) (A) (A) (A) (A) (A) (A)
                 (A) (A) (A) (A) (A) (A) (A) (A) (A) (A) (A) (A)
                 (A) (A) (A) (A) (A) (A) (A) (A) (A) (A) (A) (A)
                 (A) (A) (A) (A) (A) (A) (A) (A) (A) (A) (A) (A)
                 (A) (A) (A) (A) (A) (A) (A) (A) (A) (A) (A) (A)
                 (A) (A) (A) (A) (A) (A) (A) (A) (A) (A) (A) (A)
                 (A) (A) (A) (A) (A) (A) (A) (A) (A) (A) (A) (A)
                 (A) (A) (A) (A) (A)
       Virtual   (A) (A) (A) (A) (A) (A) (A) (A) (A) (A) (A) (A)
                 (A) (A) (A) (A) (A) (A) (A) (A) (A) (A) (A) (A)
                 (A) (A) (A) (A) (A) (A) (A) (A) (A) (A) (A) (A)
                 (A) (A) (A) (A) (A) (A) (A) (A) (A) (A) (A) (A)
                 (A) (A) (A) (A) (A) (A) (A) (A) (A) (A) (A) (A)
                 (A) (A) (A) (A) (A) (A) (A) (A) (A) (A) (A) (A)
                 (A) (A) (A) (A) (A) (A) (A) (A) (A) (A) (A) (A)
                 (A) (A) (A) (A) (A) (A) (A) (A) (A) (A) (A) (A)
                 (A) (A) (A) (A) (A) (A) (A) (A) (A) (A) (A) (A)
                 (A) (A) (A) (A) (A) (A) (A) (A) (A) (A) (A) (A)
                 (A) (A) (A) (A) (A) (A) (A) (A) (A) (A) (A) (A)
                 (A) (A) (A) (A) (A) (A) (A) (A) (A) (A) (A) (A)
                 (A) (A) (A) (A) (A) (A) (A) (A) (A) (A) (A) (A)
                 (A) (A) (A) (A) (A) (A) (A) (A) (A) (A) (A) (A)
                 (A) (A) (A) (A) (A) (A) (A) (A) (A) (A) (A) (A)
                 (A) (A) (A) (A) (A) (A) (A) (A) (A) (A) (A) (A)
                 (A) (A) (A) (A) (A) (A) (A) (A) (A) (A) (A) (A)
                 (A) (A) (A) (A) (A) (A) (A) (A) (A) (A) (A) (A)
                 (A) (A) (A) (A) (A) (A) (A) (A) (A) (A) (A) (A)
                 (A) (A) (A) (A) (A) (A) (A) (A) (A) (A) (A) (A)
                 (A) (A) (A) (A) (A) (A) (A) (A) (A) (A) (A) (A)
                 (A) (A) (A) (A) (A) (A) (A) (A) (A) (A) (A) (A)
                 (A) (A) (A) (A) (A) (A) (A) (A) (A) (A) (A) (A)
                 (A) (A) (A) (A) (A) (A) (A) (A) (A) (A) (A) (A)
                 (A) (A) (A) (A) (A) (A) (A) (A) (A) (A) (A) (A)
                 (A) (A) (A) (A) (A) (A) (A) (A) (A) (A) (A) (A)
                 (A) (A) (A) (A) (A) (A) (A) (A) (A) (A) (A) (A)
                 (A) (A) (A) (A) (A) (A) (A) (A) (A) (A) (A) (A)
                 (A) (A) (A) (A) (A) (A) (A) (A) (A) (A) (A) (A)
                 (A) (A) (A) (A) (A) (A) (A) (A) (A) (A) (A) (A)
                 (A) (A) (A) (A) (A) (A) (A) (A) (A) (A) (A) (A)
                 (A) (A) (A) (A) (A) (A) (A) (A) (A) (A) (A) (A)
                 (A) (A) (A) (A) (A) (A) (A) (A) (A) (A) (A) (A)
                 (A) (A) (A) (A) (A) (A) (A) (A) (A) (A) (A) (A)
                 (A) (A) (A) (A) (A) (A) (A) (A) (A) (A) (A) (A)
                 (A) (A) (A) (A) (A) (A) (A) (A) (A) (A) (A) (A)
                 (A) (A) (A) (A) (A) (A) (A) (A) (A) (A) (A) (A)
                 (A) (A) (A) (A) (A) (A) (A) (A) (A) (A) (A) (A)
                 (A) (A) (A) (A) (A) (A) (A) (A) (A) (A) (A) (A)
                 (A) (A) (A) (A) (A) (A) (A) (A) (A) (A) (A) (A)
                 (A) (A) (A) (A) (A) (A) (A) (A) (A) (A) (A) (A)
                 (A) (A) (A) (A) (A) (A) (A) (A) (A) (A) (A) (A)
                 (A) (A) (A) (A) (A) (A) (A) (A) (A) (A) (A) (A)
                 (A) (A) (A) (A) (A) (A) (A) (A) (A) (A) (A) (A)
                 (A) (A) (A) (A) (A) (A) (A) (A) (A) (A) (A) (A)
                 (A) (A) (A) (A) (A) (A) (A) (A) (A) (A) (A) (A)
                 (A) (A) (A) (A) (A) (A) (A) (A) (A) (A) (A) (A)
                 (A) (A) (A) (A) (A) (A) (A) (A) (A) (A) (A) (A)
                 (A) (A) (A) (A) (A) (A) (A) (A) (A) (A) (A) (A)
                 (A) (A) (A) (A) (A) (A) (A) (A) (A) (A) (A) (A)
                 (A) (A) (A) (A) (A) (A) (A) (A) (A) (A) (A) (A)
                 (A) (A) (A) (A) (A) (A) (A) (A) (A) (A) (A) (A)
                 (A) (A) (A) (A) (A) (A) (A) (A) (A) (A) (A) (A)
                 (A) (A) (A) (A) (A) (A) (A) (A) (A) (A) (A) (A)
                 (A) (A) (A) (A) (A) (A) (A) (A) (A) (A) (A) (A)
                 (A) (A) (A) (A) (A) (A) (A) (A) (A) (A) (A) (A)
                 (A) (A) (A) (A) (A) (A) (A) (A) (A) (A) (A) (A)
                 (A) (A) (A) (A) (A) (A) (A) (A) (A) (A) (A) (A)
                 (A) (A) (A) (A) (A) (A) (A) (A) (A) (A) (A) (A)
                 (A) (A) (A) (A) (A) (A) (A) (A) (A) (A) (A) (A)
                 (A) (A) (A) (A) (A) (A) (A) (A) (A) (A) (A) (A)
                 (A) (A) (A) (A) (A) (A) (A) (A) (A) (A) (A) (A)
                 (A) (A) (A) (A) (A) (A) (A) (A) (A) (A) (A) (A)
                 (A) (A) (A) (A) (A) (A) (A) (A) (A) (A) (A) (A)
                 (A) (A) (A) (A) (A) (A) (A) (A) (A) (A) (A) (A)
                 (A) (A) (A) (A) (A) (A) (A) (A) (A) (A) (A) (A)
                 (A) (A) (A) (A) (A) (A) (A) (A) (A) (A) (A) (A)
                 (A) (A) (A) (A) (A) (A) (A) (A) (A) (A) (A) (A)
                 (A) (A) (A) (A) (A) (A) (A) (A) (A) (A) (A) (A)
                 (A) (A) (A) (A) (A) (A) (A) (A) (A) (A) (A) (A)
                 (A) (A) (A) (A) (A) (A) (A) (A) (A) (A) (A) (A)
                 (A) (A) (A) (A) (A) (A) (A) (A) (A) (A) (A) (A)
                 (A) (A) (A) (A) (A) (A) (A) (A) (A) (A) (A) (A)
                 (A) (A) (A) (A) (A) (A) (A) (A) (A) (A) (A) (A)
                 (A) (A) (A) (A) (A) (A) (A) (A) (A) (A) (A) (A)
                 (A) (A) (A) (A) (A) (A) (A) (A) (A) (A) (A) (A)
                 (A) (A) (A) (A) (A) (A) (A) (A) (A) (A) (A) (A)
                 (A) (A) (A) (A) (A) (A) (A) (A) (A) (A) (A) (A)
                 (A) (A) (A) (A) (A) (A) (A) (A) (A) (A) (A) (A)
                 (A) (A) (A) (A) (A) (A) (A) (A) (A) (A) (A) (A)
                 (A) (A) (A) (A) (A) (A) (A) (A) (A) (A) (A) (A)
                 (A) (A) (A) (A) (A) (A) (A) (A) (A) (A) (A) (A)
                 (A) (A) (A) (A) (A) (A) (A) (A) (A) (A) (A) (A)
                 (A) (A) (A) (A) (A) (A) (A) (A) (A) (A) (A) (A)
                 (A) (A) (A) (A) (A) (A) (A) (A) (A) (A) (A) (A)
                 (A) (A) (A) (A) (A) (A) (A) (A) (A) (A) (A) (A)
                 (A) (A) (A) (A) (A) (A) (A) (A) (A) (A) (A) (A)
                 (A) (A) (A) (A) (A) (A) (A) (A) (A) (A) (A) (A)
                 (A) (A) (A) (A) (A) (A) (A) (A) (A) (A) (A) (A)
                 (A) (A) (A) (A) (A) (A) (A) (A) (A) (A) (A) (A)
                 (A) (A) (A) (A) (A) (A) (A) (A) (A) (A) (A) (A)
                 (A) (A) (A) (A) (A) (A) (A) (A) (A) (A) (A) (A)
                 (A) (A) (A) (A) (A) (A) (A) (A) (A) (A) (A) (A)
                 (A) (A) (A) (A) (A) (A) (A) (A) (A) (A) (A) (A)
                 (A) (A) (A) (A) (A) (A) (A) (A) (A) (A) (A) (A)
                 (A) (A) (A) (A) (A) (A) (A) (A) (A) (A) (A) (A)
                 (A) (A) (A) (A) (A) (A) (A) (A) (A) (A) (A) (A)
                 (A) (A) (A) (A) (A) (A) (A) (A) (A) (A) (A) (A)
                 (A) (A) (A) (A) (A) (A) (A) (A) (A) (A) (A) (A)
                 (A) (A) (A) (A) (A) (A) (A) (A) (A) (A) (A) (A)
                 (A) (A) (A) (A) (A) (A) (A) (A) (A) (A) (A)
 Beta  Orbitals:
       Occupied  (A) (A) (A) (A) (A) (A) (A) (A) (A) (A) (A) (A)
                 (A) (A) (A) (A) (A) (A) (A) (A) (A) (A) (A) (A)
                 (A) (A) (A) (A) (A) (A) (A) (A) (A) (A) (A) (A)
                 (A) (A) (A) (A) (A) (A) (A) (A) (A) (A) (A) (A)
                 (A) (A) (A) (A) (A) (A) (A) (A) (A) (A) (A) (A)
                 (A) (A) (A) (A) (A) (A) (A) (A) (A) (A) (A) (A)
                 (A) (A) (A) (A) (A) (A) (A) (A) (A) (A) (A) (A)
                 (A) (A) (A) (A) (A) (A) (A) (A) (A) (A) (A) (A)
                 (A) (A) (A) (A) (A) (A) (A) (A) (A) (A) (A) (A)
                 (A) (A) (A) (A)
       Virtual   (A) (A) (A) (A) (A) (A) (A) (A) (A) (A) (A) (A)
                 (A) (A) (A) (A) (A) (A) (A) (A) (A) (A) (A) (A)
                 (A) (A) (A) (A) (A) (A) (A) (A) (A) (A) (A) (A)
                 (A) (A) (A) (A) (A) (A) (A) (A) (A) (A) (A) (A)
                 (A) (A) (A) (A) (A) (A) (A) (A) (A) (A) (A) (A)
                 (A) (A) (A) (A) (A) (A) (A) (A) (A) (A) (A) (A)
                 (A) (A) (A) (A) (A) (A) (A) (A) (A) (A) (A) (A)
                 (A) (A) (A) (A) (A) (A) (A) (A) (A) (A) (A) (A)
                 (A) (A) (A) (A) (A) (A) (A) (A) (A) (A) (A) (A)
                 (A) (A) (A) (A) (A) (A) (A) (A) (A) (A) (A) (A)
                 (A) (A) (A) (A) (A) (A) (A) (A) (A) (A) (A) (A)
                 (A) (A) (A) (A) (A) (A) (A) (A) (A) (A) (A) (A)
                 (A) (A) (A) (A) (A) (A) (A) (A) (A) (A) (A) (A)
                 (A) (A) (A) (A) (A) (A) (A) (A) (A) (A) (A) (A)
                 (A) (A) (A) (A) (A) (A) (A) (A) (A) (A) (A) (A)
                 (A) (A) (A) (A) (A) (A) (A) (A) (A) (A) (A) (A)
                 (A) (A) (A) (A) (A) (A) (A) (A) (A) (A) (A) (A)
                 (A) (A) (A) (A) (A) (A) (A) (A) (A) (A) (A) (A)
                 (A) (A) (A) (A) (A) (A) (A) (A) (A) (A) (A) (A)
                 (A) (A) (A) (A) (A) (A) (A) (A) (A) (A) (A) (A)
                 (A) (A) (A) (A) (A) (A) (A) (A) (A) (A) (A) (A)
                 (A) (A) (A) (A) (A) (A) (A) (A) (A) (A) (A) (A)
                 (A) (A) (A) (A) (A) (A) (A) (A) (A) (A) (A) (A)
                 (A) (A) (A) (A) (A) (A) (A) (A) (A) (A) (A) (A)
                 (A) (A) (A) (A) (A) (A) (A) (A) (A) (A) (A) (A)
                 (A) (A) (A) (A) (A) (A) (A) (A) (A) (A) (A) (A)
                 (A) (A) (A) (A) (A) (A) (A) (A) (A) (A) (A) (A)
                 (A) (A) (A) (A) (A) (A) (A) (A) (A) (A) (A) (A)
                 (A) (A) (A) (A) (A) (A) (A) (A) (A) (A) (A) (A)
                 (A) (A) (A) (A) (A) (A) (A) (A) (A) (A) (A) (A)
                 (A) (A) (A) (A) (A) (A) (A) (A) (A) (A) (A) (A)
                 (A) (A) (A) (A) (A) (A) (A) (A) (A) (A) (A) (A)
                 (A) (A) (A) (A) (A) (A) (A) (A) (A) (A) (A) (A)
                 (A) (A) (A) (A) (A) (A) (A) (A) (A) (A) (A) (A)
                 (A) (A) (A) (A) (A) (A) (A) (A) (A) (A) (A) (A)
                 (A) (A) (A) (A) (A) (A) (A) (A) (A) (A) (A) (A)
                 (A) (A) (A) (A) (A) (A) (A) (A) (A) (A) (A) (A)
                 (A) (A) (A) (A) (A) (A) (A) (A) (A) (A) (A) (A)
                 (A) (A) (A) (A) (A) (A) (A) (A) (A) (A) (A) (A)
                 (A) (A) (A) (A) (A) (A) (A) (A) (A) (A) (A) (A)
                 (A) (A) (A) (A) (A) (A) (A) (A) (A) (A) (A) (A)
                 (A) (A) (A) (A) (A) (A) (A) (A) (A) (A) (A) (A)
                 (A) (A) (A) (A) (A) (A) (A) (A) (A) (A) (A) (A)
                 (A) (A) (A) (A) (A) (A) (A) (A) (A) (A) (A) (A)
                 (A) (A) (A) (A) (A) (A) (A) (A) (A) (A) (A) (A)
                 (A) (A) (A) (A) (A) (A) (A) (A) (A) (A) (A) (A)
                 (A) (A) (A) (A) (A) (A) (A) (A) (A) (A) (A) (A)
                 (A) (A) (A) (A) (A) (A) (A) (A) (A) (A) (A) (A)
                 (A) (A) (A) (A) (A) (A) (A) (A) (A) (A) (A) (A)
                 (A) (A) (A) (A) (A) (A) (A) (A) (A) (A) (A) (A)
                 (A) (A) (A) (A) (A) (A) (A) (A) (A) (A) (A) (A)
                 (A) (A) (A) (A) (A) (A) (A) (A) (A) (A) (A) (A)
                 (A) (A) (A) (A) (A) (A) (A) (A) (A) (A) (A) (A)
                 (A) (A) (A) (A) (A) (A) (A) (A) (A) (A) (A) (A)
                 (A) (A) (A) (A) (A) (A) (A) (A) (A) (A) (A) (A)
                 (A) (A) (A) (A) (A) (A) (A) (A) (A) (A) (A) (A)
                 (A) (A) (A) (A) (A) (A) (A) (A) (A) (A) (A) (A)
                 (A) (A) (A) (A) (A) (A) (A) (A) (A) (A) (A) (A)
                 (A) (A) (A) (A) (A) (A) (A) (A) (A) (A) (A) (A)
                 (A) (A) (A) (A) (A) (A) (A) (A) (A) (A) (A) (A)
                 (A) (A) (A) (A) (A) (A) (A) (A) (A) (A) (A) (A)
                 (A) (A) (A) (A) (A) (A) (A) (A) (A) (A) (A) (A)
                 (A) (A) (A) (A) (A) (A) (A) (A) (A) (A) (A) (A)
                 (A) (A) (A) (A) (A) (A) (A) (A) (A) (A) (A) (A)
                 (A) (A) (A) (A) (A) (A) (A) (A) (A) (A) (A) (A)
                 (A) (A) (A) (A) (A) (A) (A) (A) (A) (A) (A) (A)
                 (A) (A) (A) (A) (A) (A) (A) (A) (A) (A) (A) (A)
                 (A) (A) (A) (A) (A) (A) (A) (A) (A) (A) (A) (A)
                 (A) (A) (A) (A) (A) (A) (A) (A) (A) (A) (A) (A)
                 (A) (A) (A) (A) (A) (A) (A) (A) (A) (A) (A) (A)
                 (A) (A) (A) (A) (A) (A) (A) (A) (A) (A) (A) (A)
                 (A) (A) (A) (A) (A) (A) (A) (A) (A) (A) (A) (A)
                 (A) (A) (A) (A) (A) (A) (A) (A) (A) (A) (A) (A)
                 (A) (A) (A) (A) (A) (A) (A) (A) (A) (A) (A) (A)
                 (A) (A) (A) (A) (A) (A) (A) (A) (A) (A) (A) (A)
                 (A) (A) (A) (A) (A) (A) (A) (A) (A) (A) (A) (A)
                 (A) (A) (A) (A) (A) (A) (A) (A) (A) (A) (A) (A)
                 (A) (A) (A) (A) (A) (A) (A) (A) (A) (A) (A) (A)
                 (A) (A) (A) (A) (A) (A) (A) (A) (A) (A) (A) (A)
                 (A) (A) (A) (A) (A) (A) (A) (A) (A) (A) (A) (A)
                 (A) (A) (A) (A) (A) (A) (A) (A) (A) (A) (A) (A)
                 (A) (A) (A) (A) (A) (A) (A) (A) (A) (A) (A) (A)
                 (A) (A) (A) (A) (A) (A) (A) (A) (A) (A) (A) (A)
                 (A) (A) (A) (A) (A) (A) (A) (A) (A) (A) (A) (A)
                 (A) (A) (A) (A) (A) (A) (A) (A) (A) (A) (A) (A)
                 (A) (A) (A) (A) (A) (A) (A) (A) (A) (A) (A) (A)
                 (A) (A) (A) (A) (A) (A) (A) (A) (A) (A) (A) (A)
                 (A) (A) (A) (A) (A) (A) (A) (A) (A) (A) (A) (A)
                 (A) (A) (A) (A) (A) (A) (A) (A) (A) (A) (A) (A)
                 (A) (A) (A) (A) (A) (A) (A) (A) (A) (A) (A) (A)
                 (A) (A) (A) (A) (A) (A) (A) (A) (A) (A) (A) (A)
                 (A) (A) (A) (A) (A) (A) (A) (A) (A) (A) (A) (A)
                 (A) (A) (A) (A) (A) (A) (A) (A) (A) (A) (A) (A)
                 (A) (A) (A) (A) (A) (A) (A) (A) (A) (A) (A) (A)
                 (A) (A) (A) (A) (A) (A) (A) (A) (A) (A) (A) (A)
                 (A) (A) (A) (A) (A) (A) (A) (A) (A) (A) (A) (A)
                 (A) (A) (A) (A) (A) (A) (A) (A) (A) (A) (A) (A)
                 (A) (A) (A) (A) (A) (A) (A) (A) (A) (A) (A) (A)
                 (A) (A) (A) (A) (A) (A) (A) (A) (A) (A) (A) (A)
                 (A) (A) (A) (A) (A) (A) (A) (A) (A) (A) (A) (A)
                 (A) (A) (A) (A) (A) (A) (A) (A) (A) (A) (A) (A)
 The electronic state is 2-A.
 Alpha  occ. eigenvalues --  -77.26414 -19.25807 -19.15941 -19.13219 -14.43220
 Alpha  occ. eigenvalues --  -14.43201 -10.31981 -10.29168 -10.28587 -10.25589
 Alpha  occ. eigenvalues --  -10.25428 -10.25231 -10.25186 -10.24851 -10.24310
 Alpha  occ. eigenvalues --  -10.24210 -10.24194 -10.24173 -10.20961 -10.20941
 Alpha  occ. eigenvalues --  -10.20902 -10.20727 -10.20720 -10.20427 -10.20291
 Alpha  occ. eigenvalues --  -10.19675  -6.63835  -4.77498  -4.77399  -4.77228
 Alpha  occ. eigenvalues --   -3.07272  -1.90472  -1.90354  -1.90037  -1.13375
 Alpha  occ. eigenvalues --   -1.00938  -0.97051  -0.92893  -0.88838  -0.85309
 Alpha  occ. eigenvalues --   -0.83877  -0.83517  -0.82748  -0.77977  -0.77169
 Alpha  occ. eigenvalues --   -0.74353  -0.70662  -0.70483  -0.70165  -0.69706
 Alpha  occ. eigenvalues --   -0.69086  -0.66358  -0.66073  -0.63368  -0.62332
 Alpha  occ. eigenvalues --   -0.57931  -0.57416  -0.56221  -0.53598  -0.53259
 Alpha  occ. eigenvalues --   -0.52345  -0.51380  -0.50333  -0.48920  -0.47921
 Alpha  occ. eigenvalues --   -0.47055  -0.46718  -0.46264  -0.45882  -0.45660
 Alpha  occ. eigenvalues --   -0.45415  -0.44799  -0.44533  -0.44362  -0.43814
 Alpha  occ. eigenvalues --   -0.43476  -0.43202  -0.42104  -0.42004  -0.41319
 Alpha  occ. eigenvalues --   -0.41135  -0.40487  -0.39849  -0.39034  -0.38808
 Alpha  occ. eigenvalues --   -0.38309  -0.38050  -0.37892  -0.37150  -0.36930
 Alpha  occ. eigenvalues --   -0.36583  -0.36229  -0.35946  -0.35470  -0.35195
 Alpha  occ. eigenvalues --   -0.34716  -0.34506  -0.33934  -0.33637  -0.33266
 Alpha  occ. eigenvalues --   -0.32976  -0.32338  -0.32207  -0.31980  -0.30643
 Alpha  occ. eigenvalues --   -0.29895  -0.28606  -0.28007  -0.27188  -0.26685
 Alpha  occ. eigenvalues --   -0.22669  -0.21190  -0.20882
 Alpha virt. eigenvalues --   -0.04313  -0.02308  -0.01188   0.00840   0.01453
 Alpha virt. eigenvalues --    0.01769   0.02468   0.03206   0.03273   0.05100
 Alpha virt. eigenvalues --    0.06040   0.07081   0.07458   0.07830   0.08059
 Alpha virt. eigenvalues --    0.08175   0.08958   0.09350   0.09712   0.10278
 Alpha virt. eigenvalues --    0.10523   0.10730   0.11157   0.11320   0.11385
 Alpha virt. eigenvalues --    0.11766   0.12268   0.12873   0.13002   0.13309
 Alpha virt. eigenvalues --    0.13513   0.13811   0.14318   0.14751   0.15235
 Alpha virt. eigenvalues --    0.15305   0.15574   0.15899   0.16090   0.16252
 Alpha virt. eigenvalues --    0.16610   0.16992   0.17324   0.17786   0.17883
 Alpha virt. eigenvalues --    0.18271   0.19056   0.19088   0.19391   0.19578
 Alpha virt. eigenvalues --    0.19845   0.20211   0.20411   0.20763   0.20880
 Alpha virt. eigenvalues --    0.21355   0.21490   0.21973   0.22367   0.23262
 Alpha virt. eigenvalues --    0.23364   0.23888   0.24071   0.24806   0.25212
 Alpha virt. eigenvalues --    0.25509   0.25921   0.26730   0.27068   0.27540
 Alpha virt. eigenvalues --    0.27781   0.27877   0.28705   0.29245   0.29545
 Alpha virt. eigenvalues --    0.29902   0.30597   0.31047   0.31301   0.31806
 Alpha virt. eigenvalues --    0.32034   0.32443   0.32669   0.33032   0.33433
 Alpha virt. eigenvalues --    0.34016   0.34176   0.34393   0.34847   0.35326
 Alpha virt. eigenvalues --    0.36470   0.36807   0.37175   0.37254   0.38129
 Alpha virt. eigenvalues --    0.38542   0.38961   0.39275   0.39414   0.39738
 Alpha virt. eigenvalues --    0.40279   0.40658   0.40928   0.41396   0.41662
 Alpha virt. eigenvalues --    0.42040   0.42705   0.42809   0.43554   0.43773
 Alpha virt. eigenvalues --    0.44010   0.44051   0.44627   0.44923   0.45090
 Alpha virt. eigenvalues --    0.45377   0.45591   0.45869   0.46074   0.46248
 Alpha virt. eigenvalues --    0.46916   0.47065   0.47233   0.47376   0.47559
 Alpha virt. eigenvalues --    0.47778   0.48064   0.48405   0.48619   0.48889
 Alpha virt. eigenvalues --    0.49195   0.49766   0.50005   0.50125   0.50498
 Alpha virt. eigenvalues --    0.50895   0.51273   0.51493   0.51700   0.52012
 Alpha virt. eigenvalues --    0.52071   0.52671   0.52883   0.52968   0.53135
 Alpha virt. eigenvalues --    0.53302   0.53844   0.54018   0.54470   0.54722
 Alpha virt. eigenvalues --    0.54991   0.55163   0.55830   0.56223   0.56522
 Alpha virt. eigenvalues --    0.56850   0.57112   0.57351   0.57576   0.57850
 Alpha virt. eigenvalues --    0.58175   0.58459   0.59183   0.59603   0.60030
 Alpha virt. eigenvalues --    0.60344   0.60687   0.60878   0.61322   0.62077
 Alpha virt. eigenvalues --    0.62260   0.62459   0.62884   0.63478   0.63946
 Alpha virt. eigenvalues --    0.64669   0.64933   0.65190   0.65908   0.66166
 Alpha virt. eigenvalues --    0.66697   0.67162   0.67473   0.67993   0.68991
 Alpha virt. eigenvalues --    0.69542   0.70054   0.70702   0.71258   0.72191
 Alpha virt. eigenvalues --    0.72513   0.72924   0.73250   0.74013   0.74480
 Alpha virt. eigenvalues --    0.74636   0.75586   0.75995   0.76150   0.76706
 Alpha virt. eigenvalues --    0.77463   0.77869   0.78179   0.78631   0.78854
 Alpha virt. eigenvalues --    0.79313   0.80076   0.80402   0.81197   0.81876
 Alpha virt. eigenvalues --    0.82069   0.82524   0.82978   0.83433   0.83619
 Alpha virt. eigenvalues --    0.84324   0.85084   0.85175   0.85722   0.86328
 Alpha virt. eigenvalues --    0.86895   0.87013   0.87478   0.87859   0.88954
 Alpha virt. eigenvalues --    0.89406   0.89556   0.89698   0.90035   0.90406
 Alpha virt. eigenvalues --    0.91385   0.91710   0.92141   0.92727   0.93056
 Alpha virt. eigenvalues --    0.93283   0.93710   0.94061   0.94197   0.95143
 Alpha virt. eigenvalues --    0.95302   0.95731   0.95900   0.96536   0.96964
 Alpha virt. eigenvalues --    0.97188   0.97870   0.98366   0.99014   0.99511
 Alpha virt. eigenvalues --    0.99823   1.00389   1.00571   1.01126   1.01240
 Alpha virt. eigenvalues --    1.01586   1.01651   1.02194   1.02383   1.02772
 Alpha virt. eigenvalues --    1.03155   1.03226   1.03822   1.04151   1.04473
 Alpha virt. eigenvalues --    1.04733   1.05249   1.06307   1.06598   1.07101
 Alpha virt. eigenvalues --    1.07194   1.07356   1.08375   1.08523   1.08761
 Alpha virt. eigenvalues --    1.09669   1.09935   1.10647   1.10844   1.11174
 Alpha virt. eigenvalues --    1.11778   1.12491   1.12671   1.12748   1.13446
 Alpha virt. eigenvalues --    1.14109   1.14354   1.14673   1.15014   1.15276
 Alpha virt. eigenvalues --    1.15407   1.16322   1.16691   1.16802   1.17712
 Alpha virt. eigenvalues --    1.17851   1.18214   1.18919   1.19377   1.19640
 Alpha virt. eigenvalues --    1.20178   1.20469   1.20715   1.21195   1.21514
 Alpha virt. eigenvalues --    1.21923   1.22395   1.22859   1.22958   1.23772
 Alpha virt. eigenvalues --    1.24189   1.24382   1.24551   1.25061   1.25245
 Alpha virt. eigenvalues --    1.25578   1.25935   1.26324   1.26535   1.26695
 Alpha virt. eigenvalues --    1.27227   1.28008   1.28274   1.28393   1.28702
 Alpha virt. eigenvalues --    1.28963   1.29522   1.29813   1.30182   1.30805
 Alpha virt. eigenvalues --    1.31061   1.31226   1.32027   1.32111   1.32364
 Alpha virt. eigenvalues --    1.32451   1.32872   1.33312   1.33693   1.33924
 Alpha virt. eigenvalues --    1.34255   1.34828   1.35220   1.35421   1.35964
 Alpha virt. eigenvalues --    1.36190   1.36497   1.36814   1.37437   1.37724
 Alpha virt. eigenvalues --    1.37948   1.38376   1.38588   1.38737   1.39136
 Alpha virt. eigenvalues --    1.39757   1.39933   1.40684   1.40821   1.41575
 Alpha virt. eigenvalues --    1.41743   1.42273   1.42449   1.42792   1.43256
 Alpha virt. eigenvalues --    1.43540   1.43965   1.44890   1.45036   1.45319
 Alpha virt. eigenvalues --    1.46102   1.46377   1.46724   1.47808   1.48245
 Alpha virt. eigenvalues --    1.48597   1.49298   1.49770   1.50816   1.50908
 Alpha virt. eigenvalues --    1.51133   1.51487   1.51605   1.52397   1.52968
 Alpha virt. eigenvalues --    1.53385   1.53977   1.54517   1.55180   1.55584
 Alpha virt. eigenvalues --    1.56308   1.56750   1.57299   1.57467   1.57693
 Alpha virt. eigenvalues --    1.57812   1.58274   1.58761   1.59391   1.59813
 Alpha virt. eigenvalues --    1.60228   1.60575   1.60703   1.61635   1.61934
 Alpha virt. eigenvalues --    1.62270   1.62721   1.63459   1.63647   1.64086
 Alpha virt. eigenvalues --    1.64733   1.65309   1.66397   1.66632   1.66868
 Alpha virt. eigenvalues --    1.67712   1.68998   1.69191   1.69491   1.70078
 Alpha virt. eigenvalues --    1.70259   1.71143   1.71775   1.72499   1.72981
 Alpha virt. eigenvalues --    1.73872   1.74323   1.74650   1.75542   1.76157
 Alpha virt. eigenvalues --    1.77426   1.77953   1.78454   1.79129   1.80078
 Alpha virt. eigenvalues --    1.81885   1.82526   1.82766   1.83472   1.84519
 Alpha virt. eigenvalues --    1.85106   1.86157   1.87470   1.88269   1.90048
 Alpha virt. eigenvalues --    1.90415   1.90948   1.91954   1.93298   1.93956
 Alpha virt. eigenvalues --    1.94758   1.96750   1.97339   1.98028   1.98865
 Alpha virt. eigenvalues --    1.98997   1.99900   2.01396   2.01991   2.04173
 Alpha virt. eigenvalues --    2.05630   2.06134   2.06957   2.07754   2.09532
 Alpha virt. eigenvalues --    2.10545   2.12773   2.14129   2.15269   2.15882
 Alpha virt. eigenvalues --    2.17330   2.18717   2.20915   2.22265   2.23308
[...]
 --------------------------------------------------------


 ---------------------------------------------------------------------------------
              Anisotropic Spin Dipole Couplings in Principal Axis System
 ---------------------------------------------------------------------------------

       Atom             a.u.   MegaHertz   Gauss  10(-4) cm-1        Axes

              Baa    -0.0034    -1.792    -0.639    -0.598  0.0008  0.7313  0.6821
     1 H(1)   Bbb    -0.0020    -1.078    -0.385    -0.360  0.5347 -0.5767  0.6177
              Bcc     0.0054     2.870     1.024     0.957  0.8451  0.3642 -0.3914
 
              Baa    -0.0129    -1.733    -0.618    -0.578  0.1817 -0.0426  0.9824
     2 C(13)  Bbb    -0.0099    -1.334    -0.476    -0.445  0.1221  0.9923  0.0204
              Bcc     0.0229     3.067     1.094     1.023  0.9757 -0.1163 -0.1855
 
              Baa    -0.0027    -1.422    -0.507    -0.474 -0.1529  0.8903 -0.4290
     3 H(1)   Bbb    -0.0021    -1.127    -0.402    -0.376 -0.3495  0.3573  0.8661
              Bcc     0.0048     2.549     0.910     0.850  0.9244  0.2823  0.2565
 
              Baa    -0.0157    -8.357    -2.982    -2.788 -0.0445 -0.0279  0.9986
     4 H(1)   Bbb    -0.0120    -6.424    -2.292    -2.143 -0.2894  0.9571  0.0138
              Bcc     0.0277    14.781     5.274     4.930  0.9562  0.2884  0.0507
 
              Baa    -0.0040    -2.117    -0.755    -0.706  0.7518 -0.1690 -0.6373
     5 H(1)   Bbb    -0.0031    -1.629    -0.581    -0.543 -0.1316  0.9087 -0.3962
              Bcc     0.0070     3.746     1.337     1.250  0.6461  0.3818  0.6609
 
              Baa    -1.3107    94.839    33.841    31.635  0.0083  0.6391  0.7691
     6 O(17)  Bbb    -1.2762    92.344    32.951    30.803 -0.1297  0.7633 -0.6329
              Bcc     2.5869  -187.183   -66.792   -62.438  0.9915  0.0945 -0.0892
 
              Baa    -0.0042    -2.249    -0.803    -0.750  0.0902  0.6326  0.7692
     7 H(1)   Bbb    -0.0037    -1.964    -0.701    -0.655  0.1233  0.7593 -0.6389
              Bcc     0.0079     4.213     1.503     1.405  0.9883 -0.1525  0.0095
 
              Baa    -0.0112     0.813     0.290     0.271  0.7803  0.0684 -0.6217
     8 O(17)  Bbb     0.0029    -0.213    -0.076    -0.071 -0.4766  0.7085 -0.5204
              Bcc     0.0083    -0.599    -0.214    -0.200  0.4049  0.7023  0.5855
 
              Baa    -0.0060    -0.811    -0.289    -0.270  0.3599  0.6117  0.7045
     9 C(13)  Bbb    -0.0025    -0.342    -0.122    -0.114 -0.3353  0.7894 -0.5142
              Bcc     0.0086     1.152     0.411     0.384  0.8706  0.0511 -0.4892
 
              Baa    -0.0012    -0.627    -0.224    -0.209 -0.6600  0.1008  0.7444
    10 H(1)   Bbb    -0.0011    -0.565    -0.202    -0.189 -0.2581  0.9002 -0.3508
              Bcc     0.0022     1.193     0.426     0.398  0.7055  0.4236  0.5682
 
              Baa    -0.0022    -1.198    -0.428    -0.400  0.3147  0.6313  0.7088
    11 H(1)   Bbb    -0.0015    -0.813    -0.290    -0.271 -0.0059  0.7480 -0.6637
              Bcc     0.0038     2.011     0.718     0.671  0.9492 -0.2047 -0.2392
 
              Baa    -0.0022    -0.299    -0.107    -0.100 -0.5663 -0.0089  0.8242
    12 C(13)  Bbb    -0.0017    -0.233    -0.083    -0.078 -0.3212  0.9233 -0.2108
              Bcc     0.0040     0.532     0.190     0.178  0.7591  0.3841  0.5257
 
              Baa    -0.0111    -5.901    -2.106    -1.968  0.6099  0.0786  0.7886
    13 H(1)   Bbb    -0.0094    -5.022    -1.792    -1.675  0.1735  0.9577 -0.2296
              Bcc     0.0205    10.923     3.898     3.643  0.7733 -0.2769 -0.5704
 
              Baa    -0.0019    -1.009    -0.360    -0.336 -0.4328  0.5177  0.7380
    14 H(1)   Bbb    -0.0016    -0.871    -0.311    -0.290  0.0254  0.8253 -0.5641
              Bcc     0.0035     1.879     0.671     0.627  0.9011  0.2254  0.3704
 
              Baa    -0.0052    -2.765    -0.986    -0.922  0.6224  0.5354  0.5709
    15 H(1)   Bbb    -0.0033    -1.735    -0.619    -0.579 -0.1599  0.8010 -0.5769
              Bcc     0.0084     4.499     1.605     1.501  0.7662 -0.2678 -0.5842
 
              Baa    -0.0071    -0.949    -0.339    -0.317  0.3662  0.0913  0.9261
    16 C(13)  Bbb    -0.0053    -0.713    -0.254    -0.238 -0.0405  0.9958 -0.0821
              Bcc     0.0124     1.662     0.593     0.554  0.9297  0.0075 -0.3683
 
              Baa    -0.0023    -1.223    -0.436    -0.408  0.4266 -0.0626  0.9023
    17 H(1)   Bbb    -0.0017    -0.920    -0.328    -0.307  0.3781  0.9186 -0.1151
              Bcc     0.0040     2.142     0.764     0.715  0.8216 -0.3902 -0.4155
 
              Baa    -0.0033    -1.775    -0.633    -0.592  0.6508 -0.0404  0.7582
    18 H(1)   Bbb    -0.0029    -1.522    -0.543    -0.508  0.5287  0.7408 -0.4144
              Bcc     0.0062     3.298     1.177     1.100 -0.5449  0.6705  0.5035
 
              Baa    -0.1567     3.839     1.370     1.281  0.0545  0.3571  0.9325
    19 Ru(99) Bbb     0.0613    -1.501    -0.536    -0.501  0.8705  0.4406 -0.2195
              Bcc     0.0954    -2.338    -0.834    -0.780 -0.4892  0.8236 -0.2868
 
              Baa    -0.0031    -1.645    -0.587    -0.549  0.8371  0.0815 -0.5409
    20 H(1)   Bbb    -0.0025    -1.322    -0.472    -0.441  0.4705 -0.6118  0.6359
              Bcc     0.0056     2.967     1.059     0.990  0.2791  0.7868  0.5505
 
              Baa    -0.0380    -1.467    -0.523    -0.489  0.2077  0.2671  0.9410
    21 N(14)  Bbb    -0.0346    -1.335    -0.476    -0.445  0.0972  0.9516 -0.2915
              Bcc     0.0726     2.801     1.000     0.934  0.9734 -0.1520 -0.1717
 
              Baa    -0.0037    -0.503    -0.179    -0.168  0.3743  0.1673  0.9121
    22 C(13)  Bbb    -0.0034    -0.456    -0.163    -0.152  0.5525  0.7497 -0.3642
              Bcc     0.0071     0.959     0.342     0.320  0.7447 -0.6403 -0.1882
 
              Baa    -0.0026    -0.350    -0.125    -0.117 -0.1327 -0.0739  0.9884
    23 C(13)  Bbb    -0.0016    -0.215    -0.077    -0.072 -0.6629  0.7480 -0.0331
              Bcc     0.0042     0.565     0.202     0.189  0.7368  0.6596  0.1482
 
              Baa    -0.0010    -0.544    -0.194    -0.182 -0.6964 -0.0168  0.7175
    24 H(1)   Bbb    -0.0009    -0.504    -0.180    -0.168 -0.5487  0.6568 -0.5173
              Bcc     0.0020     1.049     0.374     0.350  0.4625  0.7539  0.4666
 
              Baa    -0.0012    -0.638    -0.228    -0.213 -0.1375  0.9653  0.2219
    25 H(1)   Bbb    -0.0009    -0.501    -0.179    -0.167  0.0320 -0.2196  0.9751
              Bcc     0.0021     1.139     0.406     0.380  0.9900  0.1412 -0.0007
 
              Baa    -0.0019    -0.254    -0.091    -0.085 -0.6941  0.0516  0.7181
    26 C(13)  Bbb    -0.0016    -0.212    -0.076    -0.071 -0.5446  0.6146 -0.5706
              Bcc     0.0035     0.466     0.166     0.155  0.4708  0.7871  0.3985
 
              Baa    -0.0069    -0.930    -0.332    -0.310  0.5524  0.0641  0.8311
    27 C(13)  Bbb    -0.0052    -0.699    -0.249    -0.233  0.1317  0.9778 -0.1630
              Bcc     0.0121     1.629     0.581     0.544  0.8231 -0.1995 -0.5317
 
              Baa    -0.0284    -6.136    -2.189    -2.047  0.7106 -0.6950 -0.1094
    28 P(31)  Bbb    -0.0141    -3.048    -1.087    -1.017  0.3066  0.1659  0.9373
              Bcc     0.0425     9.183     3.277     3.063  0.6333  0.6996 -0.3310
 
              Baa    -0.0018    -0.950    -0.339    -0.317  0.3866  0.2571  0.8857
    29 H(1)   Bbb    -0.0015    -0.792    -0.283    -0.264  0.5514  0.7054 -0.4454
              Bcc     0.0033     1.743     0.622     0.581  0.7393 -0.6605 -0.1309
 
              Baa    -0.0028    -0.373    -0.133    -0.124 -0.1341  0.9366  0.3237
    30 C(13)  Bbb    -0.0023    -0.310    -0.110    -0.103  0.1623 -0.3015  0.9396
              Bcc     0.0051     0.682     0.243     0.228  0.9776  0.1785 -0.1116
 
              Baa    -0.0032    -1.721    -0.614    -0.574 -0.6318  0.1055  0.7679
    31 H(1)   Bbb    -0.0024    -1.301    -0.464    -0.434  0.0193  0.9925 -0.1204
              Bcc     0.0057     3.022     1.078     1.008  0.7749  0.0613  0.6291
 
              Baa    -0.0011    -0.608    -0.217    -0.203 -0.1329  0.5625  0.8160
    32 H(1)   Bbb    -0.0010    -0.513    -0.183    -0.171  0.1705  0.8240 -0.5403
              Bcc     0.0021     1.121     0.400     0.374  0.9764 -0.0674  0.2054
 
              Baa    -0.0010    -0.516    -0.184    -0.172  0.3475 -0.2378  0.9070
    33 H(1)   Bbb    -0.0007    -0.389    -0.139    -0.130  0.1131  0.9709  0.2112
              Bcc     0.0017     0.905     0.323     0.302  0.9308 -0.0292 -0.3643
 
              Baa    -0.0035    -0.475    -0.170    -0.159 -0.2820  0.6097  0.7408
    34 C(13)  Bbb    -0.0027    -0.365    -0.130    -0.122  0.4575  0.7641 -0.4547
              Bcc     0.0063     0.840     0.300     0.280  0.8433 -0.2107  0.4944
 
              Baa    -0.0006    -0.343    -0.122    -0.114 -0.4244  0.1603  0.8912
    35 H(1)   Bbb    -0.0006    -0.327    -0.117    -0.109 -0.5282  0.7556 -0.3874
              Bcc     0.0013     0.670     0.239     0.224  0.7355  0.6351  0.2360
 
              Baa    -0.0125    -1.680    -0.600    -0.561  0.7945 -0.6048  0.0536
    36 C(13)  Bbb    -0.0114    -1.534    -0.547    -0.512  0.5961  0.7601 -0.2588
              Bcc     0.0240     3.214     1.147     1.072  0.1158  0.2376  0.9644
 
              Baa    -0.0010    -0.141    -0.050    -0.047 -0.1394  0.0322  0.9897
    37 C(13)  Bbb    -0.0009    -0.127    -0.045    -0.042 -0.5977  0.7941 -0.1100
              Bcc     0.0020     0.268     0.096     0.089  0.7895  0.6069  0.0914
 
              Baa    -0.0025    -1.320    -0.471    -0.440  0.8864  0.2050  0.4151
    38 H(1)   Bbb    -0.0019    -0.996    -0.355    -0.332 -0.1890  0.9787 -0.0799
              Bcc     0.0043     2.315     0.826     0.772 -0.4227 -0.0076  0.9062
 
              Baa    -0.0016    -0.216    -0.077    -0.072  0.1275  0.9726  0.1943
    39 C(13)  Bbb    -0.0015    -0.200    -0.071    -0.067  0.7559 -0.2221  0.6158
              Bcc     0.0031     0.417     0.149     0.139 -0.6421 -0.0684  0.7635
 
              Baa    -0.0008    -0.431    -0.154    -0.144 -0.0468 -0.0503  0.9976
    40 H(1)   Bbb    -0.0007    -0.400    -0.143    -0.133 -0.4608  0.8872  0.0231
              Bcc     0.0016     0.830     0.296     0.277  0.8863  0.4586  0.0647
 
              Baa    -0.0011    -0.588    -0.210    -0.196  0.7180 -0.2520  0.6488
    41 H(1)   Bbb    -0.0010    -0.558    -0.199    -0.186  0.2528  0.9629  0.0943
              Bcc     0.0021     1.146     0.409     0.382 -0.6485  0.0963  0.7551
 
              Baa    -0.0063    -0.846    -0.302    -0.282  0.8119  0.3262  0.4842
    42 C(13)  Bbb    -0.0014    -0.183    -0.065    -0.061 -0.3040 -0.4718  0.8276
              Bcc     0.0077     1.028     0.367     0.343 -0.4984  0.8192  0.2839
 
              Baa    -0.0033    -0.126    -0.045    -0.042  0.6232  0.0025  0.7820
    43 N(14)  Bbb     0.0001     0.005     0.002     0.002 -0.0944  0.9929  0.0721
              Bcc     0.0031     0.121     0.043     0.040  0.7763  0.1187 -0.6191
 
              Baa    -0.0018    -0.237    -0.085    -0.079 -0.1664  0.4349  0.8850
    44 C(13)  Bbb    -0.0016    -0.219    -0.078    -0.073  0.3496  0.8652 -0.3594
              Bcc     0.0034     0.456     0.163     0.152  0.9220 -0.2496  0.2960
 
              Baa    -0.0014    -0.764    -0.273    -0.255 -0.3753 -0.0276  0.9265
    45 H(1)   Bbb    -0.0013    -0.712    -0.254    -0.238  0.8316 -0.4514  0.3234
              Bcc     0.0028     1.476     0.527     0.492  0.4093  0.8919  0.1924
 
              Baa    -0.0029    -1.561    -0.557    -0.521 -0.3635  0.6203  0.6951
    46 H(1)   Bbb    -0.0025    -1.339    -0.478    -0.447  0.6404  0.7082 -0.2972
              Bcc     0.0054     2.901     1.035     0.968  0.6766 -0.3371  0.6546
 
              Baa    -0.0011    -0.562    -0.201    -0.188  0.2595  0.2159  0.9413
    47 H(1)   Bbb    -0.0007    -0.398    -0.142    -0.133 -0.4097  0.9072 -0.0952
              Bcc     0.0018     0.960     0.342     0.320  0.8745  0.3610 -0.3239
 
              Baa    -0.0010    -0.528    -0.189    -0.176 -0.2006  0.1388  0.9698
    48 H(1)   Bbb    -0.0009    -0.477    -0.170    -0.159  0.4296  0.9021 -0.0402
              Bcc     0.0019     1.005     0.359     0.335  0.8805 -0.4086  0.2406
 
              Baa    -0.0035    -0.465    -0.166    -0.155  0.0044  0.5747  0.8184
    49 C(13)  Bbb    -0.0024    -0.324    -0.116    -0.108  0.9132 -0.3358  0.2310
              Bcc     0.0059     0.790     0.282     0.263  0.4076  0.7463 -0.5263
 
              Baa    -0.0008    -0.427    -0.152    -0.143  0.4009  0.8275 -0.3930
    50 H(1)   Bbb    -0.0008    -0.415    -0.148    -0.138 -0.3528  0.5354  0.7674
              Bcc     0.0016     0.842     0.301     0.281  0.8454 -0.1690  0.5066
 
              Baa    -0.0008    -0.442    -0.158    -0.148 -0.0478  0.1387  0.9892
    51 H(1)   Bbb    -0.0007    -0.398    -0.142    -0.133 -0.6841  0.7171 -0.1336
              Bcc     0.0016     0.841     0.300     0.280  0.7278  0.6831 -0.0606
 
              Baa    -0.0048    -0.644    -0.230    -0.215  0.8977  0.0974  0.4297
    52 C(13)  Bbb    -0.0019    -0.258    -0.092    -0.086 -0.3921  0.6213  0.6784
              Bcc     0.0067     0.901     0.322     0.301  0.2008  0.7775 -0.5959
 
              Baa    -0.0015    -0.200    -0.071    -0.067  0.3297  0.2818  0.9011
    53 C(13)  Bbb    -0.0009    -0.124    -0.044    -0.041  0.8650  0.2921 -0.4079
              Bcc     0.0024     0.324     0.116     0.108 -0.3781  0.9139 -0.1474
 
              Baa    -0.0012    -0.632    -0.225    -0.211  0.4415  0.7104  0.5481
    54 H(1)   Bbb    -0.0010    -0.530    -0.189    -0.177 -0.6660  0.6688 -0.3304
              Bcc     0.0022     1.162     0.415     0.388 -0.6013 -0.2192  0.7684
 
              Baa    -0.0008    -0.402    -0.143    -0.134 -0.0602  0.0447  0.9972
    55 H(1)   Bbb    -0.0007    -0.373    -0.133    -0.124  0.8823  0.4696  0.0322
              Bcc     0.0015     0.775     0.277     0.259 -0.4669  0.8817 -0.0677
 
              Baa    -0.0023    -1.212    -0.432    -0.404  0.5088  0.5639  0.6505
    56 H(1)   Bbb    -0.0019    -0.988    -0.353    -0.330  0.7593 -0.6500 -0.0304
              Bcc     0.0041     2.200     0.785     0.734 -0.4057 -0.5094  0.7589
 
              Baa    -0.0014    -0.741    -0.264    -0.247  0.1298  0.3966  0.9088
    57 H(1)   Bbb    -0.0012    -0.628    -0.224    -0.209  0.8103 -0.5707  0.1333
              Bcc     0.0026     1.368     0.488     0.456  0.5715  0.7190 -0.3954
 
              Baa    -0.0014    -0.184    -0.066    -0.061  0.2803  0.3535  0.8924
    58 C(13)  Bbb    -0.0007    -0.091    -0.032    -0.030  0.9525 -0.2175 -0.2130
              Bcc     0.0021     0.275     0.098     0.092  0.1188  0.9098 -0.3977
 
              Baa    -0.0014    -0.193    -0.069    -0.064 -0.3024  0.2054  0.9308
    59 C(13)  Bbb    -0.0001    -0.016    -0.006    -0.005  0.9379  0.2384  0.2521
              Bcc     0.0016     0.208     0.074     0.070 -0.1701  0.9492 -0.2647
 
              Baa    -0.0007    -0.355    -0.127    -0.119 -0.0571  0.3976  0.9158
    60 H(1)   Bbb    -0.0006    -0.332    -0.119    -0.111  0.9838 -0.1337  0.1194
              Bcc     0.0013     0.688     0.245     0.229  0.1699  0.9078 -0.3835
 
              Baa    -0.0005    -0.255    -0.091    -0.085  0.0105  0.2382  0.9712
    61 H(1)   Bbb    -0.0004    -0.230    -0.082    -0.077  0.9876  0.1494 -0.0473
              Bcc     0.0009     0.485     0.173     0.162 -0.1563  0.9597 -0.2337
 
              Baa    -0.0142     1.025     0.366     0.342 -0.1579  0.9368 -0.3123
    62 O(17)  Bbb    -0.0121     0.877     0.313     0.293  0.9733  0.0944 -0.2091
              Bcc     0.0263    -1.902    -0.679    -0.634  0.1664  0.3370  0.9267
 
              Baa    -0.0099    -5.266    -1.879    -1.757  0.9774 -0.1717  0.1235
    63 H(1)   Bbb    -0.0088    -4.687    -1.672    -1.563  0.2101  0.8543 -0.4754
              Bcc     0.0187     9.953     3.552     3.320 -0.0239  0.4906  0.8710
 

 ---------------------------------------------------------------------------------

 1\1\GINC-NODE265\SP\UPBE1PBE\GenECP\C20H36N2O3P1Ru1(2)\JS1212\28-Aug-2
 020\0\\# genecp pbe1pbe EmpiricalDispersion=GD3BJ scrf=(SMD,solvent=wa
 ter) geom=allcheck\\Title Card Required\\0,2\H,0,-0.1736665368,1.62129
 13294,3.8251032107\C,0,0.8226035548,1.1808631395,3.6724204595\H,0,1.29
 19710344,1.0803838937,4.6633632951\H,0,1.4118012445,1.878128695,3.0539
 193706\H,0,1.4648942869,1.5337265453,-2.0640032362\O,0,2.1173850954,2.
 1204441716,1.049070263\H,0,3.371580163,3.6308677758,-1.4037617339\O,0,
 1.1258488901,-0.0509473707,-0.0626522666\C,0,0.6657456286,-0.142832315
 1,2.9566196692\H,0,1.4821407847,1.2137439311,-3.8194046682\H,0,0.10101
 62618,-0.8663678309,3.5755939634\C,0,2.1119047739,1.4634811984,-2.9494
 162405\H,0,3.8588944633,3.2610885992,0.2513084151\H,0,2.5672385251,2.4
 466481033,-3.139769547\H,0,0.1184350752,-0.0033175296,2.013693169\C,0,
 4.2466049699,3.46668403,-0.7580252864\H,0,4.8351036709,4.3992503882,-0
 .7449736818\H,0,0.8925310993,-1.7873557054,1.1194380037\Ru,0,2.9311628
 615,0.3984527367,0.838398525\H,0,1.7855671225,-0.9387538795,-1.6752831
 681\N,0,1.9522490661,-0.7538678831,2.5499835197\C,0,1.6666753148,-2.03
 26292386,1.867429041\C,0,3.1573334946,0.3644287061,-2.7550410918\H,0,1
 .8181860496,-1.1556143472,-3.4560983308\H,0,4.7644568781,2.9090050743,
 -3.37377677\C,0,2.4388908661,-0.9776357959,-2.5615438805\C,0,5.1313241
 463,2.3321704208,-1.2874811421\P,0,4.0853700783,0.7441666408,-1.140052
 1245\H,0,1.2859063726,-2.7978376249,2.5634329743\C,0,5.5993471974,2.67
 37870269,-2.7012556139\H,0,3.1791714662,0.0416059,4.0391079515\H,0,1.4
 885129169,-1.3121432538,5.3363189165\H,0,6.2311691571,3.5756579395,-2.
 6423064103\C,0,2.8809575469,-0.9534029165,3.6857938759\H,0,3.440905624
 7,-0.1946870691,-4.8031899611\C,0,4.3790286751,0.8634892499,1.86862080
 83\C,0,4.0511259285,0.2353675156,-3.9918716302\H,0,6.162332427,1.93598
 59697,0.6257805883\C,0,6.3814550213,2.2048962283,-0.4132767661\H,0,4.4
 475892355,1.1888885322,-4.3540070947\H,0,6.8847671278,3.1853839273,-0.
 3932344022\C,0,2.8520449154,-2.5341817993,1.1002552615\N,0,3.558764516
 4,-1.5691270361,0.4843246295\C,0,2.3587470565,-1.7784810601,4.85192210
 9\H,0,3.1480615544,-1.8170552444,-2.4909898164\H,0,3.7889811764,-1.418
 6356334,3.2729685068\H,0,6.2066181371,1.8756542239,-3.1524084218\H,0,2
 .0811587247,-2.8028663288,4.5618439009\C,0,5.2736149828,-0.6975485287,
 -0.9775504037\H,0,3.1525119704,-1.8597822696,5.6094826603\H,0,4.895134
 5777,-0.4540955919,-3.8330773572\C,0,4.5782953672,-1.8684191064,-0.343
 1603275\C,0,3.1790970004,-3.8747911319,0.9320506596\H,0,7.1013336658,1
 .4815452385,-0.8267169347\H,0,2.6027312603,-4.6445342708,1.4464106377\
 H,0,6.0634931046,-0.3507328445,-0.2918085225\H,0,5.7579815878,-0.98523
 92066,-1.9217519717\C,0,4.9380759885,-3.1957750721,-0.5639603482\C,0,4
 .2357754333,-4.2066730458,0.087080536\H,0,5.7620591468,-3.4289449721,-
 1.2391294731\H,0,4.509035974,-5.2518270975,-0.0680395788\O,0,5.2274673
 456,1.1721802735,2.602953378\H,0,0.7594189538,0.8483455959,-0.01813009
 67\\Version=ES64L-G16RevA.03\State=2-A\HF=-1554.3510295\S2=0.76031\S2-
 1=0.\S2A=0.750062\RMSD=2.590e-09\Dipole=2.8367965,-4.298045,-1.0165012
 \Quadrupole=-8.3330439,1.7580419,6.5750021,3.9982872,-15.2196246,-12.9
 127994\PG=C01 [X(C20H36N2O3P1Ru1)]\\@


 A SOLDIER'S LIFE IS A LIFE OF HONOR, BUT A DOG WOULD NOT LEAD IT.
 -- PRINCE RUPERT, FOUNDER OF THE HUDSON'S BAY COMPANY
 Job cpu time:       1 days  5 hours 40 minutes 20.7 seconds.
 Elapsed time:       0 days  1 hours 29 minutes 12.3 seconds.
 File lengths (MBytes):  RWF=   1877 Int=      0 D2E=      0 Chk=    146 Scr=      1
 Normal termination of Gaussian 16 at Fri Aug 28 19:54:59 2020.
