 Entering Gaussian System, Link 0=g16
 Initial command:
 /cluster/chemistry/gaussian/g16/l1.exe "/scratch/js1212.744968/scratch/Gau-13998.inp" -scrdir="/scratch/js1212.744968/scratch/"
 Entering Link 1 = /cluster/chemistry/gaussian/g16/l1.exe PID=     13999.
  
 Copyright (c) 1988,1990,1992,1993,1995,1998,2003,2009,2016,
            Gaussian, Inc.  All Rights Reserved.
  
 This is part of the Gaussian(R) 16 program.  It is based on
 the Gaussian(R) 09 system (copyright 2009, Gaussian, Inc.),
 the Gaussian(R) 03 system (copyright 2003, Gaussian, Inc.),
 the Gaussian(R) 98 system (copyright 1998, Gaussian, Inc.),
 the Gaussian(R) 94 system (copyright 1995, Gaussian, Inc.),
 the Gaussian 92(TM) system (copyright 1992, Gaussian, Inc.),
 the Gaussian 90(TM) system (copyright 1990, Gaussian, Inc.),
 the Gaussian 88(TM) system (copyright 1988, Gaussian, Inc.),
 the Gaussian 86(TM) system (copyright 1986, Carnegie Mellon
 University), and the Gaussian 82(TM) system (copyright 1983,
 Carnegie Mellon University). Gaussian is a federally registered
 trademark of Gaussian, Inc.
  
 This software contains proprietary and confidential information,
 including trade secrets, belonging to Gaussian, Inc.
  
 This software is provided under written license and may be
 used, copied, transmitted, or stored only in accord with that
 written license.
  
 The following legend is applicable only to US Government
 contracts under FAR:
  
                    RESTRICTED RIGHTS LEGEND
  
 Use, reproduction and disclosure by the US Government is
 subject to restrictions as set forth in subparagraphs (a)
 and (c) of the Commercial Computer Software - Restricted
 Rights clause in FAR 52.227-19.
  
 Gaussian, Inc.
 340 Quinnipiac St., Bldg. 40, Wallingford CT 06492
  
  
 ---------------------------------------------------------------
 Warning -- This program may not be used in any manner that
 competes with the business of Gaussian, Inc. or will provide
 assistance to any competitor of Gaussian, Inc.  The licensee
 of this program is prohibited from giving any competitor of
 Gaussian, Inc. access to this program.  By using this program,
 the user acknowledges that Gaussian, Inc. is engaged in the
 business of creating and licensing software in the field of
 computational chemistry and represents and warrants to the
 licensee that it is not a competitor of Gaussian, Inc. and that
 it will not use this program in any manner prohibited above.
 ---------------------------------------------------------------
  

 Cite this work as:
 Gaussian 16, Revision A.03,
 M. J. Frisch, G. W. Trucks, H. B. Schlegel, G. E. Scuseria, 
 M. A. Robb, J. R. Cheeseman, G. Scalmani, V. Barone, 
 G. A. Petersson, H. Nakatsuji, X. Li, M. Caricato, A. V. Marenich, 
 J. Bloino, B. G. Janesko, R. Gomperts, B. Mennucci, H. P. Hratchian, 
 J. V. Ortiz, A. F. Izmaylov, J. L. Sonnenberg, D. Williams-Young, 
 F. Ding, F. Lipparini, F. Egidi, J. Goings, B. Peng, A. Petrone, 
 T. Henderson, D. Ranasinghe, V. G. Zakrzewski, J. Gao, N. Rega, 
 G. Zheng, W. Liang, M. Hada, M. Ehara, K. Toyota, R. Fukuda, 
 J. Hasegawa, M. Ishida, T. Nakajima, Y. Honda, O. Kitao, H. Nakai, 
 T. Vreven, K. Throssell, J. A. Montgomery, Jr., J. E. Peralta, 
 F. Ogliaro, M. J. Bearpark, J. J. Heyd, E. N. Brothers, K. N. Kudin, 
 V. N. Staroverov, T. A. Keith, R. Kobayashi, J. Normand, 
 K. Raghavachari, A. P. Rendell, J. C. Burant, S. S. Iyengar, 
 J. Tomasi, M. Cossi, J. M. Millam, M. Klene, C. Adamo, R. Cammi, 
 J. W. Ochterski, R. L. Martin, K. Morokuma, O. Farkas, 
 J. B. Foresman, and D. J. Fox, Gaussian, Inc., Wallingford CT, 2016.
 
 ******************************************
 Gaussian 16:  ES64L-G16RevA.03 25-Dec-2016
                27-May-2020 
 ******************************************
 %rwf=/scratch/js1212.744968/G-Mono-D-0-GPOF.rwf
 %nosave
 %nprocshared=20
 Will use up to   20 processors via shared memory.
 %mem=3000MB
 %chk=/scratch/js1212.744968/G-Mono-D-0-GPOF.chk
 ---------------------------------------------------
 # opt freq genecp pbe1pbe EmpiricalDispersion=GD3BJ
 ---------------------------------------------------
 1/18=20,19=15,26=3,38=1/1,3;
 2/9=110,12=2,17=6,18=5,40=1/2;
 3/5=7,11=2,16=1,17=8,25=1,30=1,71=1,74=-13,124=41/1,2,3;
 4//1;
 5/5=2,38=5/2;
 6/7=2,8=2,9=2,10=2,28=1/1;
 7//1,2,3,16;
 1/18=20,19=15,26=3/3(2);
 2/9=110/2;
 99//99;
 2/9=110/2;
 3/5=7,6=1,11=2,16=1,17=8,25=1,30=1,71=1,74=-13,82=7,124=41/1,2,3;
 4/5=5,16=3,69=1/1;
 5/5=2,38=5/2;
 7//1,2,3,16;
 1/18=20,19=15,26=3/3(-5);
 2/9=110/2;
 6/7=2,8=2,9=2,10=2,19=2,28=1/1;
 99/9=1/99;
 -------------------
 Title Card Required
 -------------------
 Symbolic Z-matrix:
 Charge =  0 Multiplicity = 2
 H                    -0.03271   1.60418   4.13717 
 C                     0.93903   1.19294   3.83039 
 H                     1.55757   1.10677   4.73735 
 H                     1.40931   1.90677   3.13456 
 H                     1.46667   1.59848  -2.33918 
 O                     1.96714   2.11966   1.02547 
 H                     3.2637    3.58976  -1.40532 
 O                     1.13721  -0.21512  -0.12088 
 C                     0.70514  -0.13262   3.14136 
 H                     1.65072   1.13562  -4.04736 
 H                     0.23184  -0.85739   3.83074 
 C                     2.20339   1.42983  -3.13929 
 H                     3.78233   3.29263   0.25363 
 H                     2.69252   2.39138  -3.35541 
 H                     0.01209  -0.01986   2.29622 
 C                     4.15143   3.47739  -0.76538 
 H                     4.70769   4.42922  -0.78539 
 H                     0.74442  -1.81454   1.29101 
 Ru                    2.84345   0.41858   0.84464 
 H                     1.8413   -0.99793  -1.75221 
 N                     1.94541  -0.73808   2.59715 
 C                     1.60894  -2.01774   1.94199 
 C                     3.21917   0.33453  -2.80832 
 H                     1.88886  -1.17928  -3.54147 
 H                     4.74593   2.90046  -3.37196 
 C                     2.49751  -1.00907  -2.63714 
 C                     5.06992   2.35683  -1.26636 
 P                     4.03937   0.75614  -1.14019 
 H                     1.31415  -2.78482   2.67687 
 C                     5.56579   2.70422  -2.66978 
 H                     3.2942    0.02463   4.0018 
 H                     1.72024  -1.3299    5.41648 
 H                     6.15948   3.63055  -2.59746 
 C                     2.9649   -0.96123   3.65394 
 H                     3.65865  -0.29009  -4.8062 
 C                     4.23993   0.99765   1.88691 
 C                     4.20926   0.16512  -3.96646 
 H                     6.07936   1.98017   0.66517 
 C                     6.30687   2.25095  -0.37099 
 H                     4.63229   1.10637  -4.32961 
 H                     6.79448   3.23921  -0.34468 
 C                     2.745    -2.50792   1.09336 
 N                     3.49427  -1.54532   0.52592 
 C                     2.53635  -1.7993    4.8488 
 H                     3.21037  -1.84541  -2.56623 
 H                     3.83516  -1.42327   3.1644 
 H                     6.22003   1.92761  -3.09094 
 H                     2.22104  -2.81646   4.57277 
 C                     5.23608  -0.66838  -0.89074 
 H                     3.39534  -1.89987   5.52898 
 H                     5.03647  -0.52011  -3.72437 
 C                     4.50474  -1.84421  -0.31228 
 C                     3.0087   -3.85068   0.84361 
 H                     7.04318   1.53799  -0.77358 
 H                     2.39588  -4.62062   1.31359 
 H                     5.96418  -0.30988  -0.14538 
 H                     5.79248  -0.94732  -1.79631 
 C                     4.80936  -3.17184  -0.60228 
 C                     4.05194  -4.18314  -0.01677 
 H                     5.62669  -3.40435  -1.28555 
 H                     4.27449  -5.22961  -0.23262 
 O                     5.05375   1.38425   2.62202 
 H                     0.80147   0.56698  -0.59067 
 

 GradGradGradGradGradGradGradGradGradGradGradGradGradGradGradGradGradGrad
 Berny optimization.
 Initialization pass.
                           ----------------------------
                           !    Initial Parameters    !
                           ! (Angstroms and Degrees)  !
 --------------------------                            --------------------------
 ! Name  Definition              Value          Derivative Info.                !
 --------------------------------------------------------------------------------
 ! R1    R(1,2)                  1.0989         estimate D2E/DX2                !
 ! R2    R(2,3)                  1.1012         estimate D2E/DX2                !
 ! R3    R(2,4)                  1.1022         estimate D2E/DX2                !
 ! R4    R(2,9)                  1.5121         estimate D2E/DX2                !
 ! R5    R(5,12)                 1.1006         estimate D2E/DX2                !
 ! R6    R(6,19)                 1.9221         estimate D2E/DX2                !
 ! R7    R(7,16)                 1.1001         estimate D2E/DX2                !
 ! R8    R(8,19)                 2.0604         estimate D2E/DX2                !
 ! R9    R(8,63)                 0.9722         estimate D2E/DX2                !
 ! R10   R(9,11)                 1.1066         estimate D2E/DX2                !
 ! R11   R(9,15)                 1.0988         estimate D2E/DX2                !
 ! R12   R(9,21)                 1.4836         estimate D2E/DX2                !
 ! R13   R(10,12)                1.103          estimate D2E/DX2                !
 ! R14   R(12,14)                1.1002         estimate D2E/DX2                !
 ! R15   R(12,23)                1.53           estimate D2E/DX2                !
 ! R16   R(13,16)                1.0994         estimate D2E/DX2                !
 ! R17   R(16,17)                1.1026         estimate D2E/DX2                !
 ! R18   R(16,27)                1.5331         estimate D2E/DX2                !
 ! R19   R(18,22)                1.1011         estimate D2E/DX2                !
 ! R20   R(19,28)                2.3417         estimate D2E/DX2                !
 ! R21   R(19,36)                1.8362         estimate D2E/DX2                !
 ! R22   R(19,43)                2.0933         estimate D2E/DX2                !
 ! R23   R(20,26)                1.1017         estimate D2E/DX2                !
 ! R24   R(21,22)                1.4765         estimate D2E/DX2                !
 ! R25   R(21,34)                1.4852         estimate D2E/DX2                !
 ! R26   R(22,29)                1.1024         estimate D2E/DX2                !
 ! R27   R(22,42)                1.5004         estimate D2E/DX2                !
 ! R28   R(23,26)                1.5347         estimate D2E/DX2                !
 ! R29   R(23,28)                1.9061         estimate D2E/DX2                !
 ! R30   R(23,37)                1.5331         estimate D2E/DX2                !
 ! R31   R(24,26)                1.1033         estimate D2E/DX2                !
 ! R32   R(25,30)                1.0971         estimate D2E/DX2                !
 ! R33   R(26,45)                1.1012         estimate D2E/DX2                !
 ! R34   R(27,28)                1.9079         estimate D2E/DX2                !
 ! R35   R(27,30)                1.5284         estimate D2E/DX2                !
 ! R36   R(27,39)                1.5307         estimate D2E/DX2                !
 ! R37   R(28,49)                1.8771         estimate D2E/DX2                !
 ! R38   R(30,33)                1.1026         estimate D2E/DX2                !
 ! R39   R(30,47)                1.0993         estimate D2E/DX2                !
 ! R40   R(31,34)                1.0961         estimate D2E/DX2                !
 ! R41   R(32,44)                1.0994         estimate D2E/DX2                !
 ! R42   R(34,44)                1.5211         estimate D2E/DX2                !
 ! R43   R(34,46)                1.1002         estimate D2E/DX2                !
 ! R44   R(35,37)                1.1025         estimate D2E/DX2                !
 ! R45   R(36,62)                1.1628         estimate D2E/DX2                !
 ! R46   R(37,40)                1.094          estimate D2E/DX2                !
 ! R47   R(37,51)                1.1011         estimate D2E/DX2                !
 ! R48   R(38,39)                1.0949         estimate D2E/DX2                !
 ! R49   R(39,41)                1.1023         estimate D2E/DX2                !
 ! R50   R(39,54)                1.1012         estimate D2E/DX2                !
 ! R51   R(42,43)                1.3454         estimate D2E/DX2                !
 ! R52   R(42,53)                1.391          estimate D2E/DX2                !
 ! R53   R(43,52)                1.3465         estimate D2E/DX2                !
 ! R54   R(44,48)                1.1001         estimate D2E/DX2                !
 ! R55   R(44,50)                1.1003         estimate D2E/DX2                !
 ! R56   R(49,52)                1.5007         estimate D2E/DX2                !
 ! R57   R(49,56)                1.1019         estimate D2E/DX2                !
 ! R58   R(49,57)                1.0988         estimate D2E/DX2                !
 ! R59   R(52,58)                1.3927         estimate D2E/DX2                !
 ! R60   R(53,55)                1.0905         estimate D2E/DX2                !
 ! R61   R(53,59)                1.3925         estimate D2E/DX2                !
 ! R62   R(58,59)                1.3926         estimate D2E/DX2                !
 ! R63   R(58,60)                1.0904         estimate D2E/DX2                !
 ! R64   R(59,61)                1.0914         estimate D2E/DX2                !
 ! A1    A(1,2,3)              107.2217         estimate D2E/DX2                !
 ! A2    A(1,2,4)              108.1304         estimate D2E/DX2                !
 ! A3    A(1,2,9)              108.5719         estimate D2E/DX2                !
 ! A4    A(3,2,4)              109.3277         estimate D2E/DX2                !
 ! A5    A(3,2,9)              113.1776         estimate D2E/DX2                !
 ! A6    A(4,2,9)              110.246          estimate D2E/DX2                !
 ! A7    A(19,8,63)            105.3679         estimate D2E/DX2                !
 ! A8    A(2,9,11)             110.8811         estimate D2E/DX2                !
 ! A9    A(2,9,15)             110.9825         estimate D2E/DX2                !
 ! A10   A(2,9,21)             113.3028         estimate D2E/DX2                !
 ! A11   A(11,9,15)            106.058          estimate D2E/DX2                !
 ! A12   A(11,9,21)            108.5899         estimate D2E/DX2                !
 ! A13   A(15,9,21)            106.6808         estimate D2E/DX2                !
 ! A14   A(5,12,10)            107.6961         estimate D2E/DX2                !
 ! A15   A(5,12,14)            107.8459         estimate D2E/DX2                !
 ! A16   A(5,12,23)            113.3799         estimate D2E/DX2                !
 ! A17   A(10,12,14)           107.1068         estimate D2E/DX2                !
 ! A18   A(10,12,23)           108.6502         estimate D2E/DX2                !
 ! A19   A(14,12,23)           111.899          estimate D2E/DX2                !
 ! A20   A(7,16,13)            106.5837         estimate D2E/DX2                !
 ! A21   A(7,16,17)            107.9606         estimate D2E/DX2                !
 ! A22   A(7,16,27)            111.5943         estimate D2E/DX2                !
 ! A23   A(13,16,17)           109.3447         estimate D2E/DX2                !
 ! A24   A(13,16,27)           112.4071         estimate D2E/DX2                !
 ! A25   A(17,16,27)           108.8315         estimate D2E/DX2                !
 ! A26   A(6,19,8)              86.4874         estimate D2E/DX2                !
 ! A27   A(6,19,28)            100.6614         estimate D2E/DX2                !
 ! A28   A(6,19,36)             90.8155         estimate D2E/DX2                !
 ! A29   A(8,19,28)             94.0177         estimate D2E/DX2                !
 ! A30   A(8,19,43)             84.1207         estimate D2E/DX2                !
 ! A31   A(28,19,36)            92.7083         estimate D2E/DX2                !
 ! A32   A(28,19,43)            81.223          estimate D2E/DX2                !
 ! A33   A(36,19,43)            98.3856         estimate D2E/DX2                !
 ! A34   A(9,21,22)            109.024          estimate D2E/DX2                !
 ! A35   A(9,21,34)            111.9718         estimate D2E/DX2                !
 ! A36   A(22,21,34)           109.9948         estimate D2E/DX2                !
 ! A37   A(18,22,21)           106.3387         estimate D2E/DX2                !
 ! A38   A(18,22,29)           108.2131         estimate D2E/DX2                !
 ! A39   A(18,22,42)           108.6866         estimate D2E/DX2                !
 ! A40   A(21,22,29)           111.6047         estimate D2E/DX2                !
 ! A41   A(21,22,42)           111.1977         estimate D2E/DX2                !
 ! A42   A(29,22,42)           110.6211         estimate D2E/DX2                !
 ! A43   A(12,23,26)           109.7957         estimate D2E/DX2                !
 ! A44   A(12,23,28)           108.4601         estimate D2E/DX2                !
 ! A45   A(12,23,37)           110.1483         estimate D2E/DX2                !
 ! A46   A(26,23,28)           107.3599         estimate D2E/DX2                !
 ! A47   A(26,23,37)           106.9298         estimate D2E/DX2                !
 ! A48   A(28,23,37)           114.0589         estimate D2E/DX2                !
 ! A49   A(20,26,23)           111.1498         estimate D2E/DX2                !
 ! A50   A(20,26,24)           109.3505         estimate D2E/DX2                !
 ! A51   A(20,26,45)           109.9697         estimate D2E/DX2                !
 ! A52   A(23,26,24)           107.6407         estimate D2E/DX2                !
 ! A53   A(23,26,45)           111.5728         estimate D2E/DX2                !
 ! A54   A(24,26,45)           107.0216         estimate D2E/DX2                !
 ! A55   A(16,27,28)           105.5458         estimate D2E/DX2                !
 ! A56   A(16,27,30)           109.1655         estimate D2E/DX2                !
 ! A57   A(16,27,39)           110.0942         estimate D2E/DX2                !
 ! A58   A(28,27,30)           115.2546         estimate D2E/DX2                !
 ! A59   A(28,27,39)           109.8634         estimate D2E/DX2                !
 ! A60   A(30,27,39)           106.897          estimate D2E/DX2                !
 ! A61   A(19,28,23)           119.3496         estimate D2E/DX2                !
 ! A62   A(19,28,27)           116.9259         estimate D2E/DX2                !
 ! A63   A(19,28,49)            95.9438         estimate D2E/DX2                !
 ! A64   A(23,28,27)           111.108          estimate D2E/DX2                !
 ! A65   A(23,28,49)           102.8719         estimate D2E/DX2                !
 ! A66   A(27,28,49)           107.5246         estimate D2E/DX2                !
 ! A67   A(25,30,27)           112.6978         estimate D2E/DX2                !
 ! A68   A(25,30,33)           107.1013         estimate D2E/DX2                !
 ! A69   A(25,30,47)           109.0191         estimate D2E/DX2                !
 ! A70   A(27,30,33)           107.7823         estimate D2E/DX2                !
 ! A71   A(27,30,47)           112.5991         estimate D2E/DX2                !
 ! A72   A(33,30,47)           107.3483         estimate D2E/DX2                !
 ! A73   A(21,34,31)           107.2717         estimate D2E/DX2                !
 ! A74   A(21,34,44)           116.6356         estimate D2E/DX2                !
 ! A75   A(21,34,46)           106.8248         estimate D2E/DX2                !
 ! A76   A(31,34,44)           109.324          estimate D2E/DX2                !
 ! A77   A(31,34,46)           106.3377         estimate D2E/DX2                !
 ! A78   A(44,34,46)           109.9373         estimate D2E/DX2                !
 ! A79   A(23,37,35)           107.3664         estimate D2E/DX2                !
 ! A80   A(23,37,40)           113.9181         estimate D2E/DX2                !
 ! A81   A(23,37,51)           112.8212         estimate D2E/DX2                !
 ! A82   A(35,37,40)           107.1889         estimate D2E/DX2                !
 ! A83   A(35,37,51)           106.6009         estimate D2E/DX2                !
 ! A84   A(40,37,51)           108.5369         estimate D2E/DX2                !
 ! A85   A(27,39,38)           113.7519         estimate D2E/DX2                !
 ! A86   A(27,39,41)           108.0239         estimate D2E/DX2                !
 ! A87   A(27,39,54)           111.7948         estimate D2E/DX2                !
 ! A88   A(38,39,41)           106.9214         estimate D2E/DX2                !
 ! A89   A(38,39,54)           108.9549         estimate D2E/DX2                !
 ! A90   A(41,39,54)           107.0623         estimate D2E/DX2                !
 ! A91   A(22,42,43)           115.2461         estimate D2E/DX2                !
 ! A92   A(22,42,53)           124.0885         estimate D2E/DX2                !
 ! A93   A(43,42,53)           120.6218         estimate D2E/DX2                !
 ! A94   A(19,43,42)           115.7146         estimate D2E/DX2                !
 ! A95   A(19,43,52)           122.436          estimate D2E/DX2                !
 ! A96   A(42,43,52)           121.4457         estimate D2E/DX2                !
 ! A97   A(32,44,34)           112.3039         estimate D2E/DX2                !
 ! A98   A(32,44,48)           108.154          estimate D2E/DX2                !
 ! A99   A(32,44,50)           107.4191         estimate D2E/DX2                !
 ! A100  A(34,44,48)           113.1462         estimate D2E/DX2                !
 ! A101  A(34,44,50)           108.4219         estimate D2E/DX2                !
 ! A102  A(48,44,50)           107.1192         estimate D2E/DX2                !
 ! A103  A(28,49,52)           109.5812         estimate D2E/DX2                !
 ! A104  A(28,49,56)           105.3219         estimate D2E/DX2                !
 ! A105  A(28,49,57)           113.9499         estimate D2E/DX2                !
 ! A106  A(52,49,56)           108.4328         estimate D2E/DX2                !
 ! A107  A(52,49,57)           111.4404         estimate D2E/DX2                !
 ! A108  A(56,49,57)           107.786          estimate D2E/DX2                !
 ! A109  A(43,52,49)           115.5792         estimate D2E/DX2                !
 ! A110  A(43,52,58)           120.3578         estimate D2E/DX2                !
 ! A111  A(49,52,58)           124.0614         estimate D2E/DX2                !
 ! A112  A(42,53,55)           119.8432         estimate D2E/DX2                !
 ! A113  A(42,53,59)           118.909          estimate D2E/DX2                !
 ! A114  A(55,53,59)           121.2459         estimate D2E/DX2                !
 ! A115  A(52,58,59)           119.0637         estimate D2E/DX2                !
 ! A116  A(52,58,60)           119.8494         estimate D2E/DX2                !
 ! A117  A(59,58,60)           121.0852         estimate D2E/DX2                !
 ! A118  A(53,59,58)           119.5956         estimate D2E/DX2                !
 ! A119  A(53,59,61)           120.256          estimate D2E/DX2                !
 ! A120  A(58,59,61)           120.1484         estimate D2E/DX2                !
 ! A121  L(6,19,43,8,-1)       170.6081         estimate D2E/DX2                !
 ! A122  L(8,19,36,6,-1)       177.3029         estimate D2E/DX2                !
 ! A123  L(19,36,62,1,-1)      174.8377         estimate D2E/DX2                !
 ! A124  L(6,19,43,8,-2)       181.1917         estimate D2E/DX2                !
 ! A125  L(8,19,36,6,-2)       173.6576         estimate D2E/DX2                !
 ! A126  L(19,36,62,1,-2)      179.6857         estimate D2E/DX2                !
 ! D1    D(1,2,9,11)           -61.6505         estimate D2E/DX2                !
 ! D2    D(1,2,9,15)            55.9552         estimate D2E/DX2                !
 ! D3    D(1,2,9,21)           175.9499         estimate D2E/DX2                !
 ! D4    D(3,2,9,11)            57.2708         estimate D2E/DX2                !
 ! D5    D(3,2,9,15)           174.8764         estimate D2E/DX2                !
 ! D6    D(3,2,9,21)           -65.1289         estimate D2E/DX2                !
 ! D7    D(4,2,9,11)          -179.933          estimate D2E/DX2                !
 ! D8    D(4,2,9,15)           -62.3274         estimate D2E/DX2                !
 ! D9    D(4,2,9,21)            57.6673         estimate D2E/DX2                !
 ! D10   D(63,8,19,6)           32.9352         estimate D2E/DX2                !
 ! D11   D(63,8,19,28)         -67.5219         estimate D2E/DX2                !
 ! D12   D(63,8,19,43)        -148.2565         estimate D2E/DX2                !
 ! D13   D(2,9,21,22)         -179.6854         estimate D2E/DX2                !
 ! D14   D(2,9,21,34)           58.3682         estimate D2E/DX2                !
 ! D15   D(11,9,21,22)          56.6507         estimate D2E/DX2                !
 ! D16   D(11,9,21,34)         -65.2957         estimate D2E/DX2                !
 ! D17   D(15,9,21,22)         -57.2681         estimate D2E/DX2                !
 ! D18   D(15,9,21,34)        -179.2145         estimate D2E/DX2                !
 ! D19   D(5,12,23,26)          62.7027         estimate D2E/DX2                !
 ! D20   D(5,12,23,28)         -54.3281         estimate D2E/DX2                !
 ! D21   D(5,12,23,37)        -179.7988         estimate D2E/DX2                !
 ! D22   D(10,12,23,26)        -56.9951         estimate D2E/DX2                !
 ! D23   D(10,12,23,28)       -174.0259         estimate D2E/DX2                !
 ! D24   D(10,12,23,37)         60.5034         estimate D2E/DX2                !
 ! D25   D(14,12,23,26)       -175.0471         estimate D2E/DX2                !
 ! D26   D(14,12,23,28)         67.9221         estimate D2E/DX2                !
 ! D27   D(14,12,23,37)        -57.5486         estimate D2E/DX2                !
 ! D28   D(7,16,27,28)         -62.7371         estimate D2E/DX2                !
 ! D29   D(7,16,27,30)          61.7009         estimate D2E/DX2                !
 ! D30   D(7,16,27,39)         178.753          estimate D2E/DX2                !
 ! D31   D(13,16,27,28)         56.9478         estimate D2E/DX2                !
 ! D32   D(13,16,27,30)       -178.6143         estimate D2E/DX2                !
 ! D33   D(13,16,27,39)        -61.5621         estimate D2E/DX2                !
 ! D34   D(17,16,27,28)        178.2252         estimate D2E/DX2                !
 ! D35   D(17,16,27,30)        -57.3368         estimate D2E/DX2                !
 ! D36   D(17,16,27,39)         59.7153         estimate D2E/DX2                !
 ! D37   D(6,19,28,23)         -89.4136         estimate D2E/DX2                !
 ! D38   D(6,19,28,27)          49.0893         estimate D2E/DX2                !
 ! D39   D(6,19,28,49)         162.1953         estimate D2E/DX2                !
 ! D40   D(8,19,28,23)          -2.238          estimate D2E/DX2                !
 ! D41   D(8,19,28,27)         136.265          estimate D2E/DX2                !
 ! D42   D(8,19,28,49)        -110.6291         estimate D2E/DX2                !
 ! D43   D(36,19,28,23)        179.2453         estimate D2E/DX2                !
 ! D44   D(36,19,28,27)        -42.2517         estimate D2E/DX2                !
 ! D45   D(36,19,28,49)         70.8542         estimate D2E/DX2                !
 ! D46   D(43,19,28,23)         81.1729         estimate D2E/DX2                !
 ! D47   D(43,19,28,27)       -140.3241         estimate D2E/DX2                !
 ! D48   D(43,19,28,49)        -27.2182         estimate D2E/DX2                !
 ! D49   D(8,19,43,42)         -60.6576         estimate D2E/DX2                !
 ! D50   D(8,19,43,52)         112.1414         estimate D2E/DX2                !
 ! D51   D(28,19,43,42)       -155.6583         estimate D2E/DX2                !
 ! D52   D(28,19,43,52)         17.1407         estimate D2E/DX2                !
 ! D53   D(36,19,43,42)        112.8766         estimate D2E/DX2                !
 ! D54   D(36,19,43,52)        -74.3244         estimate D2E/DX2                !
 ! D55   D(9,21,22,18)          48.0447         estimate D2E/DX2                !
 ! D56   D(9,21,22,29)         -69.757          estimate D2E/DX2                !
 ! D57   D(9,21,22,42)         166.1957         estimate D2E/DX2                !
 ! D58   D(34,21,22,18)        171.1795         estimate D2E/DX2                !
 ! D59   D(34,21,22,29)         53.3778         estimate D2E/DX2                !
 ! D60   D(34,21,22,42)        -70.6694         estimate D2E/DX2                !
 ! D61   D(9,21,34,31)         -67.1826         estimate D2E/DX2                !
 ! D62   D(9,21,34,44)          55.7477         estimate D2E/DX2                !
 ! D63   D(9,21,34,46)         179.1282         estimate D2E/DX2                !
 ! D64   D(22,21,34,31)        171.4286         estimate D2E/DX2                !
 ! D65   D(22,21,34,44)        -65.6411         estimate D2E/DX2                !
 ! D66   D(22,21,34,46)         57.7394         estimate D2E/DX2                !
 ! D67   D(18,22,42,43)         84.5902         estimate D2E/DX2                !
 ! D68   D(18,22,42,53)        -93.0148         estimate D2E/DX2                !
 ! D69   D(21,22,42,43)        -32.1338         estimate D2E/DX2                !
 ! D70   D(21,22,42,53)        150.2612         estimate D2E/DX2                !
 ! D71   D(29,22,42,43)       -156.7373         estimate D2E/DX2                !
 ! D72   D(29,22,42,53)         25.6578         estimate D2E/DX2                !
 ! D73   D(12,23,26,20)        -66.415          estimate D2E/DX2                !
 ! D74   D(12,23,26,24)         53.3096         estimate D2E/DX2                !
 ! D75   D(12,23,26,45)        170.4419         estimate D2E/DX2                !
 ! D76   D(28,23,26,20)         51.3025         estimate D2E/DX2                !
 ! D77   D(28,23,26,24)        171.0271         estimate D2E/DX2                !
 ! D78   D(28,23,26,45)        -71.8406         estimate D2E/DX2                !
 ! D79   D(37,23,26,20)        174.0977         estimate D2E/DX2                !
 ! D80   D(37,23,26,24)        -66.1777         estimate D2E/DX2                !
 ! D81   D(37,23,26,45)         50.9546         estimate D2E/DX2                !
 ! D82   D(12,23,28,19)         75.4502         estimate D2E/DX2                !
 ! D83   D(12,23,28,27)        -65.2602         estimate D2E/DX2                !
 ! D84   D(12,23,28,49)        179.949          estimate D2E/DX2                !
 ! D85   D(26,23,28,19)        -43.1331         estimate D2E/DX2                !
 ! D86   D(26,23,28,27)        176.1565         estimate D2E/DX2                !
 ! D87   D(26,23,28,49)         61.3658         estimate D2E/DX2                !
 ! D88   D(37,23,28,19)       -161.4074         estimate D2E/DX2                !
 ! D89   D(37,23,28,27)         57.8822         estimate D2E/DX2                !
 ! D90   D(37,23,28,49)        -56.9086         estimate D2E/DX2                !
 ! D91   D(12,23,37,35)        -70.197          estimate D2E/DX2                !
 ! D92   D(12,23,37,40)         48.3206         estimate D2E/DX2                !
 ! D93   D(12,23,37,51)        172.6498         estimate D2E/DX2                !
 ! D94   D(26,23,37,35)         49.0626         estimate D2E/DX2                !
 ! D95   D(26,23,37,40)        167.5802         estimate D2E/DX2                !
 ! D96   D(26,23,37,51)        -68.0906         estimate D2E/DX2                !
 ! D97   D(28,23,37,35)        167.5824         estimate D2E/DX2                !
 ! D98   D(28,23,37,40)        -73.9            estimate D2E/DX2                !
 ! D99   D(28,23,37,51)         50.4292         estimate D2E/DX2                !
 ! D100  D(16,27,28,19)        -45.7903         estimate D2E/DX2                !
 ! D101  D(16,27,28,23)         95.9612         estimate D2E/DX2                !
 ! D102  D(16,27,28,49)       -152.1804         estimate D2E/DX2                !
 ! D103  D(30,27,28,19)       -166.3212         estimate D2E/DX2                !
 ! D104  D(30,27,28,23)        -24.5697         estimate D2E/DX2                !
 ! D105  D(30,27,28,49)         87.2886         estimate D2E/DX2                !
 ! D106  D(39,27,28,19)         72.8736         estimate D2E/DX2                !
 ! D107  D(39,27,28,23)       -145.3749         estimate D2E/DX2                !
 ! D108  D(39,27,28,49)        -33.5166         estimate D2E/DX2                !
 ! D109  D(16,27,30,25)        -55.3083         estimate D2E/DX2                !
 ! D110  D(16,27,30,33)         62.6539         estimate D2E/DX2                !
 ! D111  D(16,27,30,47)       -179.1375         estimate D2E/DX2                !
 ! D112  D(28,27,30,25)         63.2253         estimate D2E/DX2                !
 ! D113  D(28,27,30,33)       -178.8125         estimate D2E/DX2                !
 ! D114  D(28,27,30,47)        -60.6039         estimate D2E/DX2                !
 ! D115  D(39,27,30,25)       -174.3675         estimate D2E/DX2                !
 ! D116  D(39,27,30,33)        -56.4053         estimate D2E/DX2                !
 ! D117  D(39,27,30,47)         61.8033         estimate D2E/DX2                !
 ! D118  D(16,27,39,38)         62.9157         estimate D2E/DX2                !
 ! D119  D(16,27,39,41)        -55.6123         estimate D2E/DX2                !
 ! D120  D(16,27,39,54)       -173.1553         estimate D2E/DX2                !
 ! D121  D(28,27,39,38)        -52.9077         estimate D2E/DX2                !
 ! D122  D(28,27,39,41)       -171.4357         estimate D2E/DX2                !
 ! D123  D(28,27,39,54)         71.0213         estimate D2E/DX2                !
 ! D124  D(30,27,39,38)       -178.6287         estimate D2E/DX2                !
 ! D125  D(30,27,39,41)         62.8432         estimate D2E/DX2                !
 ! D126  D(30,27,39,54)        -54.6997         estimate D2E/DX2                !
 ! D127  D(19,28,49,52)         39.4848         estimate D2E/DX2                !
 ! D128  D(19,28,49,56)        -76.9659         estimate D2E/DX2                !
 ! D129  D(19,28,49,57)        165.1131         estimate D2E/DX2                !
 ! D130  D(23,28,49,52)        -82.472          estimate D2E/DX2                !
 ! D131  D(23,28,49,56)        161.0773         estimate D2E/DX2                !
 ! D132  D(23,28,49,57)         43.1563         estimate D2E/DX2                !
 ! D133  D(27,28,49,52)        160.17           estimate D2E/DX2                !
 ! D134  D(27,28,49,56)         43.7193         estimate D2E/DX2                !
 ! D135  D(27,28,49,57)        -74.2017         estimate D2E/DX2                !
 ! D136  D(21,34,44,32)        -62.9232         estimate D2E/DX2                !
 ! D137  D(21,34,44,48)         59.87           estimate D2E/DX2                !
 ! D138  D(21,34,44,50)        178.543          estimate D2E/DX2                !
 ! D139  D(31,34,44,32)         58.9374         estimate D2E/DX2                !
 ! D140  D(31,34,44,48)       -178.2693         estimate D2E/DX2                !
 ! D141  D(31,34,44,50)        -59.5964         estimate D2E/DX2                !
 ! D142  D(46,34,44,32)        175.3156         estimate D2E/DX2                !
 ! D143  D(46,34,44,48)        -61.8912         estimate D2E/DX2                !
 ! D144  D(46,34,44,50)         56.7818         estimate D2E/DX2                !
 ! D145  D(22,42,43,19)         -3.8267         estimate D2E/DX2                !
 ! D146  D(22,42,43,52)       -176.7032         estimate D2E/DX2                !
 ! D147  D(53,42,43,19)        173.8685         estimate D2E/DX2                !
 ! D148  D(53,42,43,52)          0.9919         estimate D2E/DX2                !
 ! D149  D(22,42,53,55)         -2.7714         estimate D2E/DX2                !
 ! D150  D(22,42,53,59)        176.7277         estimate D2E/DX2                !
 ! D151  D(43,42,53,55)        179.746          estimate D2E/DX2                !
 ! D152  D(43,42,53,59)         -0.7549         estimate D2E/DX2                !
 ! D153  D(19,43,52,49)          6.4471         estimate D2E/DX2                !
 ! D154  D(19,43,52,58)       -173.1022         estimate D2E/DX2                !
 ! D155  D(42,43,52,49)        178.84           estimate D2E/DX2                !
 ! D156  D(42,43,52,58)         -0.7093         estimate D2E/DX2                !
 ! D157  D(28,49,52,43)        -33.474          estimate D2E/DX2                !
 ! D158  D(28,49,52,58)        146.0566         estimate D2E/DX2                !
 ! D159  D(56,49,52,43)         80.9941         estimate D2E/DX2                !
 ! D160  D(56,49,52,58)        -99.4754         estimate D2E/DX2                !
 ! D161  D(57,49,52,43)       -160.5289         estimate D2E/DX2                !
 ! D162  D(57,49,52,58)         19.0016         estimate D2E/DX2                !
 ! D163  D(43,52,58,59)          0.2013         estimate D2E/DX2                !
 ! D164  D(43,52,58,60)        179.7396         estimate D2E/DX2                !
 ! D165  D(49,52,58,59)       -179.3079         estimate D2E/DX2                !
 ! D166  D(49,52,58,60)          0.2303         estimate D2E/DX2                !
 ! D167  D(42,53,59,58)          0.2577         estimate D2E/DX2                !
 ! D168  D(42,53,59,61)       -179.6565         estimate D2E/DX2                !
 ! D169  D(55,53,59,58)        179.7495         estimate D2E/DX2                !
 ! D170  D(55,53,59,61)         -0.1647         estimate D2E/DX2                !
 ! D171  D(52,58,59,53)          0.0115         estimate D2E/DX2                !
 ! D172  D(52,58,59,61)        179.9259         estimate D2E/DX2                !
 ! D173  D(60,58,59,53)       -179.5208         estimate D2E/DX2                !
 ! D174  D(60,58,59,61)          0.3935         estimate D2E/DX2                !
 --------------------------------------------------------------------------------
 Trust Radius=3.00D-01 FncErr=1.00D-07 GrdErr=1.00D-06 EigMax=2.50D+02 EigMin=1.00D-04
 Number of steps in this run=    374 maximum allowed number of steps=    378.
 GradGradGradGradGradGradGradGradGradGradGradGradGradGradGradGradGradGrad

 Stoichiometry    C20H36N2O3PRu(2)
 Framework group  C1[X(C20H36N2O3PRu)]
 Deg. of freedom   183
 Full point group                 C1      NOp   1
 Largest Abelian subgroup         C1      NOp   1
 Largest concise Abelian subgroup C1      NOp   1
                         Standard orientation:                         
 ---------------------------------------------------------------------
 Center     Atomic      Atomic             Coordinates (Angstroms)
 Number     Number       Type             X           Y           Z
 ---------------------------------------------------------------------
      1          1           0       -3.773024   -3.217938    1.884078
      2          6           0       -3.329505   -2.655239    1.050909
      3          1           0       -3.905829   -2.903945    0.146150
      4          1           0       -2.288091   -2.993434    0.924503
      5          1           0        2.222262   -0.489930    2.781743
      6          8           0       -0.224671   -2.296310    1.171626
      7          1           0        2.878984   -2.566999    0.959353
      8          8           0       -0.491888    0.243169    2.137927
      9          6           0       -3.363650   -1.182506    1.392183
     10          1           0        3.542786    0.636498    3.173366
     11          1           0       -4.405094   -0.831917    1.522689
     12          6           0        3.094115    0.036200    2.364088
     13          1           0        1.548495   -2.934659   -0.137918
     14          1           0        3.837197   -0.721088    2.072749
     15          1           0       -2.855588   -0.987961    2.346814
     16          6           0        2.614058   -2.666031   -0.103766
     17          1           0        3.212124   -3.489566   -0.527927
     18          1           0       -2.463451    1.103699    1.858125
     19         44           0       -0.438027   -0.614753    0.265461
     20          1           0        0.822876    1.664104    1.989227
     21          7           0       -2.701175   -0.328960    0.375520
     22          6           0       -2.782396    1.081502    0.804445
     23          6           0        2.742130    0.967030    1.201894
     24          1           0        2.275330    2.557803    2.562186
     25          1           0        4.793737   -1.044678    0.213650
     26          6           0        1.800307    2.075739    1.690861
     27          6           0        2.918106   -1.381300   -0.883050
     28         15           0        1.800155   -0.040064   -0.114003
     29          1           0       -3.814900    1.463869    0.748844
     30          6           0        4.418360   -1.096887   -0.815964
     31          1           0       -3.094357   -1.505819   -1.308052
     32          1           0       -5.395192   -0.946745   -0.467208
     33          1           0        4.941870   -1.932153   -1.309981
     34          6           0       -3.314359   -0.487346   -0.967939
     35          1           0        4.333945    2.375038    1.443678
     36          6           0       -0.582167   -1.474169   -1.350841
     37          6           0        4.006576    1.655494    0.675149
     38          1           0        1.502637   -1.754920   -2.540911
     39          6           0        2.566151   -1.567010   -2.361083
     40          1           0        4.841663    0.972002    0.495562
     41          1           0        3.115066   -2.447015   -2.734442
     42          6           0       -1.854703    1.946524    0.003069
     43          7           0       -0.721522    1.347642   -0.405874
     44          6           0       -4.811070   -0.235412   -1.068405
     45          1           0        1.662186    2.856094    0.926250
     46          1           0       -2.773663    0.189135   -1.646542
     47          1           0        4.697768   -0.175370   -1.346310
     48          1           0       -5.099106    0.783399   -0.769598
     49          6           0        1.450165    1.235803   -1.445643
     50          1           0       -5.115525   -0.363388   -2.117954
     51          1           0        3.825828    2.236133   -0.242790
     52          6           0        0.228780    2.025820   -1.076668
     53          6           0       -2.086926    3.289337   -0.275935
     54          1           0        2.884918   -0.705707   -2.968609
     55          1           0       -3.011745    3.760944    0.058031
     56          1           0        1.227477    0.654273   -2.354733
     57          1           0        2.301866    1.893487   -1.668135
     58          6           0        0.051258    3.373820   -1.378128
     59          6           0       -1.119581    4.009253   -0.972425
     60          1           0        0.828076    3.916078   -1.917996
     61          1           0       -1.276558    5.065471   -1.198211
     62          8           0       -0.754126   -2.071578   -2.333532
     63          1           0        0.096365   -0.301459    2.687875
 ---------------------------------------------------------------------
 Rotational constants (GHZ):           0.2486465           0.1591012           0.1312064
 General basis read from cards:  (5D, 7F)
 ======================================================================================================
                                       Pseudopotential Parameters
 ======================================================================================================
  Center     Atomic      Valence      Angular      Power
  Number     Number     Electrons     Momentum     of R      Exponent        Coefficient   SO-Coeffient
 ======================================================================================================
    1          1
                                   No pseudopotential on this center.
    2          6
                                   No pseudopotential on this center.
    3          1
                                   No pseudopotential on this center.
    4          1
                                   No pseudopotential on this center.
    5          1
                                   No pseudopotential on this center.
    6          8
                                   No pseudopotential on this center.
    7          1
                                   No pseudopotential on this center.
    8          8
                                   No pseudopotential on this center.
    9          6
                                   No pseudopotential on this center.
   10          1
                                   No pseudopotential on this center.
   11          1
                                   No pseudopotential on this center.
   12          6
                                   No pseudopotential on this center.
   13          1
                                   No pseudopotential on this center.
   14          1
                                   No pseudopotential on this center.
   15          1
                                   No pseudopotential on this center.
   16          6
                                   No pseudopotential on this center.
   17          1
                                   No pseudopotential on this center.
   18          1
                                   No pseudopotential on this center.
   19         44           16
                                      G and up 
                                                     2        1.0000000        0.00000000    0.00000000
                                      S - G
                                                     2       11.1052690      209.82297100    0.00000000
                                                     2        5.4147450       30.65472600    0.00000000
                                      P - G
                                                     2        9.7712710      146.33618200    0.00000000
                                                     2        5.0739910       24.12787700    0.00000000
                                      D - G
                                                     2        7.6714230       67.51589700    0.00000000
                                                     2        4.1365650        9.87010400    0.00000000
                                      F - G
                                                     2       11.3600000      -28.34061600    0.00000000
                                                     2        5.6800000       -4.94462900    0.00000000
   20          1
                                   No pseudopotential on this center.
   21          7
                                   No pseudopotential on this center.
   22          6
                                   No pseudopotential on this center.
   23          6
                                   No pseudopotential on this center.
   24          1
                                   No pseudopotential on this center.
   25          1
                                   No pseudopotential on this center.
   26          6
                                   No pseudopotential on this center.
   27          6
                                   No pseudopotential on this center.
   28         15
                                   No pseudopotential on this center.
   29          1
                                   No pseudopotential on this center.
   30          6
                                   No pseudopotential on this center.
   31          1
                                   No pseudopotential on this center.
   32          1
                                   No pseudopotential on this center.
   33          1
                                   No pseudopotential on this center.
   34          6
                                   No pseudopotential on this center.
   35          1
                                   No pseudopotential on this center.
   36          6
                                   No pseudopotential on this center.
   37          6
                                   No pseudopotential on this center.
   38          1
                                   No pseudopotential on this center.
   39          6
                                   No pseudopotential on this center.
   40          1
                                   No pseudopotential on this center.
   41          1
                                   No pseudopotential on this center.
   42          6
                                   No pseudopotential on this center.
   43          7
                                   No pseudopotential on this center.
   44          6
                                   No pseudopotential on this center.
   45          1
                                   No pseudopotential on this center.
   46          1
                                   No pseudopotential on this center.
   47          1
                                   No pseudopotential on this center.
   48          1
                                   No pseudopotential on this center.
   49          6
                                   No pseudopotential on this center.
   50          1
                                   No pseudopotential on this center.
   51          1
                                   No pseudopotential on this center.
   52          6
                                   No pseudopotential on this center.
   53          6
                                   No pseudopotential on this center.
   54          1
                                   No pseudopotential on this center.
   55          1
                                   No pseudopotential on this center.
   56          1
                                   No pseudopotential on this center.
   57          1
                                   No pseudopotential on this center.
   58          6
                                   No pseudopotential on this center.
   59          6
                                   No pseudopotential on this center.
   60          1
                                   No pseudopotential on this center.
   61          1
                                   No pseudopotential on this center.
   62          8
                                   No pseudopotential on this center.
   63          1
                                   No pseudopotential on this center.
 ======================================================================================================
 There are   613 symmetry adapted cartesian basis functions of A   symmetry.
 There are   584 symmetry adapted basis functions of A   symmetry.
   584 basis functions,  1213 primitive gaussians,   613 cartesian basis functions
   113 alpha electrons      112 beta electrons
       nuclear repulsion energy      3470.5773245385 Hartrees.
 NAtoms=   63 NActive=   63 NUniq=   63 SFac= 1.00D+00 NAtFMM=   60 NAOKFM=T Big=T
 Integral buffers will be    131072 words long.
 Raffenetti 2 integral format.
 Two-electron integral symmetry is turned on.
 Nuclear repulsion after empirical dispersion term =     3470.4815860574 Hartrees.
 One-electron integrals computed using PRISM.
   1 Symmetry operations used in ECPInt.
 ECPInt:  NShTT=   39340 NPrTT=  276277 LenC2=   36550 LenP2D=  140005.
 LDataN:  DoStor=T MaxTD1= 6 Len=  172
 Number of processors reduced to  16 by ecpmxn.
 NBasis=   584 RedAO= T EigKep=  4.33D-04  NBF=   584
 NBsUse=   584 1.00D-06 EigRej= -1.00D+00 NBFU=   584
 Defaulting to unpruned grid for atomic number  44.
 ExpMin= 1.60D-02 ExpMax= 9.48D+04 ExpMxC= 3.24D+03 IAcc=3 IRadAn=         5 AccDes= 0.00D+00
 Harris functional with IExCor= 1009 and IRadAn=       5 diagonalized for initial guess.
 HarFok:  IExCor= 1009 AccDes= 0.00D+00 IRadAn=         5 IDoV= 1 UseB2=F ITyADJ=14
 ICtDFT=  3500011 ScaDFX=  1.000000  1.000000  1.000000  1.000000
 Defaulting to unpruned grid for atomic number  44.
 FoFCou: FMM=F IPFlag=           0 FMFlag=      100000 FMFlg1=        2001
         NFxFlg=           0 DoJE=T BraDBF=F KetDBF=T FulRan=T
         wScrn=  0.000000 ICntrl=       500 IOpCl=  0 I1Cent=   200000004 NGrid=           0
         NMat0=    1 NMatS0=      1 NMatT0=    0 NMatD0=    1 NMtDS0=    0 NMtDT0=    0
 Petite list used in FoFCou.
 Initial guess <Sx>= 0.0000 <Sy>= 0.0000 <Sz>= 0.5000 <S**2>= 0.7500 S= 0.5000
 Requested convergence on RMS density matrix=1.00D-08 within 128 cycles.
 Requested convergence on MAX density matrix=1.00D-06.
 Requested convergence on             energy=1.00D-06.
 No special actions if energy rises.
 Defaulting to unpruned grid for atomic number  44.
 Defaulting to unpruned grid for atomic number  44.
 Defaulting to unpruned grid for atomic number  44.
 Defaulting to unpruned grid for atomic number  44.
 Defaulting to unpruned grid for atomic number  44.
 Defaulting to unpruned grid for atomic number  44.
 Defaulting to unpruned grid for atomic number  44.
 Defaulting to unpruned grid for atomic number  44.
 Defaulting to unpruned grid for atomic number  44.
 Defaulting to unpruned grid for atomic number  44.
 Defaulting to unpruned grid for atomic number  44.
 Defaulting to unpruned grid for atomic number  44.
 Defaulting to unpruned grid for atomic number  44.
 Defaulting to unpruned grid for atomic number  44.
 Defaulting to unpruned grid for atomic number  44.
 Defaulting to unpruned grid for atomic number  44.
 Defaulting to unpruned grid for atomic number  44.
 Defaulting to unpruned grid for atomic number  44.
 Defaulting to unpruned grid for atomic number  44.
 Defaulting to unpruned grid for atomic number  44.
 EnCoef did   100 forward-backward iterations
 Restarting incremental Fock formation.
 SCF Done:  E(UPBE1PBE) =  -1554.00032229     A.U. after   30 cycles
            NFock= 30  Conv=0.47D-08     -V/T= 2.0467
 <Sx>= 0.0000 <Sy>= 0.0000 <Sz>= 0.5000 <S**2>= 0.7598 S= 0.5049
 <L.S>= 0.000000000000E+00
 Annihilation of the first spin contaminant:
 S**2 before annihilation     0.7598,   after     0.7501

 **********************************************************************

            Population analysis using the SCF density.

 **********************************************************************

 Orbital symmetries:
 Alpha Orbitals:
       Occupied  (A) (A) (A) (A) (A) (A) (A) (A) (A) (A) (A) (A)
                 (A) (A) (A) (A) (A) (A) (A) (A) (A) (A) (A) (A)
                 (A) (A) (A) (A) (A) (A) (A) (A) (A) (A) (A) (A)
                 (A) (A) (A) (A) (A) (A) (A) (A) (A) (A) (A) (A)
                 (A) (A) (A) (A) (A) (A) (A) (A) (A) (A) (A) (A)
                 (A) (A) (A) (A) (A) (A) (A) (A) (A) (A) (A) (A)
                 (A) (A) (A) (A) (A) (A) (A) (A) (A) (A) (A) (A)
                 (A) (A) (A) (A) (A) (A) (A) (A) (A) (A) (A) (A)
                 (A) (A) (A) (A) (A) (A) (A) (A) (A) (A) (A) (A)
                 (A) (A) (A) (A) (A)
       Virtual   (A) (A) (A) (A) (A) (A) (A) (A) (A) (A) (A) (A)
                 (A) (A) (A) (A) (A) (A) (A) (A) (A) (A) (A) (A)
                 (A) (A) (A) (A) (A) (A) (A) (A) (A) (A) (A) (A)
                 (A) (A) (A) (A) (A) (A) (A) (A) (A) (A) (A) (A)
                 (A) (A) (A) (A) (A) (A) (A) (A) (A) (A) (A) (A)
                 (A) (A) (A) (A) (A) (A) (A) (A) (A) (A) (A) (A)
                 (A) (A) (A) (A) (A) (A) (A) (A) (A) (A) (A) (A)
                 (A) (A) (A) (A) (A) (A) (A) (A) (A) (A) (A) (A)
                 (A) (A) (A) (A) (A) (A) (A) (A) (A) (A) (A) (A)
                 (A) (A) (A) (A) (A) (A) (A) (A) (A) (A) (A) (A)
                 (A) (A) (A) (A) (A) (A) (A) (A) (A) (A) (A) (A)
                 (A) (A) (A) (A) (A) (A) (A) (A) (A) (A) (A) (A)
                 (A) (A) (A) (A) (A) (A) (A) (A) (A) (A) (A) (A)
                 (A) (A) (A) (A) (A) (A) (A) (A) (A) (A) (A) (A)
                 (A) (A) (A) (A) (A) (A) (A) (A) (A) (A) (A) (A)
                 (A) (A) (A) (A) (A) (A) (A) (A) (A) (A) (A) (A)
                 (A) (A) (A) (A) (A) (A) (A) (A) (A) (A) (A) (A)
                 (A) (A) (A) (A) (A) (A) (A) (A) (A) (A) (A) (A)
                 (A) (A) (A) (A) (A) (A) (A) (A) (A) (A) (A) (A)
                 (A) (A) (A) (A) (A) (A) (A) (A) (A) (A) (A) (A)
                 (A) (A) (A) (A) (A) (A) (A) (A) (A) (A) (A) (A)
                 (A) (A) (A) (A) (A) (A) (A) (A) (A) (A) (A) (A)
                 (A) (A) (A) (A) (A) (A) (A) (A) (A) (A) (A) (A)
                 (A) (A) (A) (A) (A) (A) (A) (A) (A) (A) (A) (A)
                 (A) (A) (A) (A) (A) (A) (A) (A) (A) (A) (A) (A)
                 (A) (A) (A) (A) (A) (A) (A) (A) (A) (A) (A) (A)
                 (A) (A) (A) (A) (A) (A) (A) (A) (A) (A) (A) (A)
                 (A) (A) (A) (A) (A) (A) (A) (A) (A) (A) (A) (A)
                 (A) (A) (A) (A) (A) (A) (A) (A) (A) (A) (A) (A)
                 (A) (A) (A) (A) (A) (A) (A) (A) (A) (A) (A) (A)
                 (A) (A) (A) (A) (A) (A) (A) (A) (A) (A) (A) (A)
                 (A) (A) (A) (A) (A) (A) (A) (A) (A) (A) (A) (A)
                 (A) (A) (A) (A) (A) (A) (A) (A) (A) (A) (A) (A)
                 (A) (A) (A) (A) (A) (A) (A) (A) (A) (A) (A) (A)
                 (A) (A) (A) (A) (A) (A) (A) (A) (A) (A) (A) (A)
                 (A) (A) (A) (A) (A) (A) (A) (A) (A) (A) (A) (A)
                 (A) (A) (A) (A) (A) (A) (A) (A) (A) (A) (A) (A)
                 (A) (A) (A) (A) (A) (A) (A) (A) (A) (A) (A) (A)
                 (A) (A) (A) (A) (A) (A) (A) (A) (A) (A) (A) (A)
                 (A) (A) (A)
 Beta  Orbitals:
       Occupied  (A) (A) (A) (A) (A) (A) (A) (A) (A) (A) (A) (A)
                 (A) (A) (A) (A) (A) (A) (A) (A) (A) (A) (A) (A)
                 (A) (A) (A) (A) (A) (A) (A) (A) (A) (A) (A) (A)
                 (A) (A) (A) (A) (A) (A) (A) (A) (A) (A) (A) (A)
                 (A) (A) (A) (A) (A) (A) (A) (A) (A) (A) (A) (A)
                 (A) (A) (A) (A) (A) (A) (A) (A) (A) (A) (A) (A)
                 (A) (A) (A) (A) (A) (A) (A) (A) (A) (A) (A) (A)
                 (A) (A) (A) (A) (A) (A) (A) (A) (A) (A) (A) (A)
                 (A) (A) (A) (A) (A) (A) (A) (A) (A) (A) (A) (A)
                 (A) (A) (A) (A)
       Virtual   (A) (A) (A) (A) (A) (A) (A) (A) (A) (A) (A) (A)
                 (A) (A) (A) (A) (A) (A) (A) (A) (A) (A) (A) (A)
                 (A) (A) (A) (A) (A) (A) (A) (A) (A) (A) (A) (A)
                 (A) (A) (A) (A) (A) (A) (A) (A) (A) (A) (A) (A)
                 (A) (A) (A) (A) (A) (A) (A) (A) (A) (A) (A) (A)
                 (A) (A) (A) (A) (A) (A) (A) (A) (A) (A) (A) (A)
                 (A) (A) (A) (A) (A) (A) (A) (A) (A) (A) (A) (A)
                 (A) (A) (A) (A) (A) (A) (A) (A) (A) (A) (A) (A)
                 (A) (A) (A) (A) (A) (A) (A) (A) (A) (A) (A) (A)
                 (A) (A) (A) (A) (A) (A) (A) (A) (A) (A) (A) (A)
                 (A) (A) (A) (A) (A) (A) (A) (A) (A) (A) (A) (A)
                 (A) (A) (A) (A) (A) (A) (A) (A) (A) (A) (A) (A)
                 (A) (A) (A) (A) (A) (A) (A) (A) (A) (A) (A) (A)
                 (A) (A) (A) (A) (A) (A) (A) (A) (A) (A) (A) (A)
                 (A) (A) (A) (A) (A) (A) (A) (A) (A) (A) (A) (A)
                 (A) (A) (A) (A) (A) (A) (A) (A) (A) (A) (A) (A)
                 (A) (A) (A) (A) (A) (A) (A) (A) (A) (A) (A) (A)
                 (A) (A) (A) (A) (A) (A) (A) (A) (A) (A) (A) (A)
                 (A) (A) (A) (A) (A) (A) (A) (A) (A) (A) (A) (A)
                 (A) (A) (A) (A) (A) (A) (A) (A) (A) (A) (A) (A)
                 (A) (A) (A) (A) (A) (A) (A) (A) (A) (A) (A) (A)
                 (A) (A) (A) (A) (A) (A) (A) (A) (A) (A) (A) (A)
                 (A) (A) (A) (A) (A) (A) (A) (A) (A) (A) (A) (A)
                 (A) (A) (A) (A) (A) (A) (A) (A) (A) (A) (A) (A)
                 (A) (A) (A) (A) (A) (A) (A) (A) (A) (A) (A) (A)
                 (A) (A) (A) (A) (A) (A) (A) (A) (A) (A) (A) (A)
                 (A) (A) (A) (A) (A) (A) (A) (A) (A) (A) (A) (A)
                 (A) (A) (A) (A) (A) (A) (A) (A) (A) (A) (A) (A)
                 (A) (A) (A) (A) (A) (A) (A) (A) (A) (A) (A) (A)
                 (A) (A) (A) (A) (A) (A) (A) (A) (A) (A) (A) (A)
                 (A) (A) (A) (A) (A) (A) (A) (A) (A) (A) (A) (A)
                 (A) (A) (A) (A) (A) (A) (A) (A) (A) (A) (A) (A)
                 (A) (A) (A) (A) (A) (A) (A) (A) (A) (A) (A) (A)
                 (A) (A) (A) (A) (A) (A) (A) (A) (A) (A) (A) (A)
                 (A) (A) (A) (A) (A) (A) (A) (A) (A) (A) (A) (A)
                 (A) (A) (A) (A) (A) (A) (A) (A) (A) (A) (A) (A)
                 (A) (A) (A) (A) (A) (A) (A) (A) (A) (A) (A) (A)
                 (A) (A) (A) (A) (A) (A) (A) (A) (A) (A) (A) (A)
                 (A) (A) (A) (A) (A) (A) (A) (A) (A) (A) (A) (A)
                 (A) (A) (A) (A)
 The electronic state is 2-A.
 Alpha  occ. eigenvalues --  -77.26418 -19.25165 -19.14866 -19.12027 -14.44416
 Alpha  occ. eigenvalues --  -14.44170 -10.30657 -10.30596 -10.30031 -10.27359
 Alpha  occ. eigenvalues --  -10.27009 -10.26456 -10.26455 -10.26454 -10.26399
 Alpha  occ. eigenvalues --  -10.26366 -10.26283 -10.25316 -10.23529 -10.23316
 Alpha  occ. eigenvalues --  -10.23188 -10.22840 -10.22716 -10.21206 -10.20736
 Alpha  occ. eigenvalues --  -10.20453  -6.64330  -4.77995  -4.77884  -4.77635
 Alpha  occ. eigenvalues --   -3.04681  -1.87910  -1.87741  -1.87467  -1.11764
 Alpha  occ. eigenvalues --   -1.01563  -0.97388  -0.89684  -0.86246  -0.85928
 Alpha  occ. eigenvalues --   -0.85101  -0.84391  -0.83385  -0.78687  -0.77808
 Alpha  occ. eigenvalues --   -0.75372  -0.71576  -0.71301  -0.70997  -0.70175
 Alpha  occ. eigenvalues --   -0.69526  -0.67064  -0.66899  -0.64033  -0.63157
 Alpha  occ. eigenvalues --   -0.58343  -0.56725  -0.55489  -0.54724  -0.54144
 Alpha  occ. eigenvalues --   -0.52818  -0.51864  -0.50777  -0.49579  -0.48996
 Alpha  occ. eigenvalues --   -0.47328  -0.46768  -0.46177  -0.46078  -0.45599
 Alpha  occ. eigenvalues --   -0.45131  -0.44950  -0.44782  -0.44023  -0.43984
 Alpha  occ. eigenvalues --   -0.43784  -0.43062  -0.42663  -0.42163  -0.41516
 Alpha  occ. eigenvalues --   -0.40954  -0.40825  -0.39941  -0.39453  -0.39115
 Alpha  occ. eigenvalues --   -0.38669  -0.38426  -0.37789  -0.37435  -0.37128
 Alpha  occ. eigenvalues --   -0.36734  -0.36447  -0.36202  -0.35837  -0.35175
 Alpha  occ. eigenvalues --   -0.35091  -0.34498  -0.34224  -0.33577  -0.33375
 Alpha  occ. eigenvalues --   -0.32832  -0.32119  -0.31085  -0.30468  -0.29095
 Alpha  occ. eigenvalues --   -0.28148  -0.27742  -0.27196  -0.26162  -0.23855
 Alpha  occ. eigenvalues --   -0.20108  -0.18770  -0.17544
 Alpha virt. eigenvalues --   -0.04739  -0.03055   0.00033   0.00741   0.02853
 Alpha virt. eigenvalues --    0.03098   0.03761   0.04124   0.04849   0.05859
 Alpha virt. eigenvalues --    0.06761   0.07101   0.07946   0.08342   0.08501
 Alpha virt. eigenvalues --    0.09244   0.09955   0.09971   0.10445   0.11004
 Alpha virt. eigenvalues --    0.11353   0.12078   0.12138   0.12625   0.12708
 Alpha virt. eigenvalues --    0.12789   0.13388   0.14093   0.14313   0.14898
 Alpha virt. eigenvalues --    0.15061   0.15268   0.15790   0.16255   0.16680
 Alpha virt. eigenvalues --    0.17265   0.17470   0.17876   0.18158   0.18479
 Alpha virt. eigenvalues --    0.18660   0.19125   0.19603   0.19882   0.20349
 Alpha virt. eigenvalues --    0.20583   0.20848   0.21016   0.21670   0.22166
 Alpha virt. eigenvalues --    0.22625   0.22939   0.23063   0.23197   0.23727
 Alpha virt. eigenvalues --    0.24171   0.24764   0.24899   0.26325   0.26558
 Alpha virt. eigenvalues --    0.27014   0.27404   0.27440   0.28009   0.28752
 Alpha virt. eigenvalues --    0.30101   0.30378   0.31044   0.31845   0.32062
 Alpha virt. eigenvalues --    0.33290   0.33954   0.34560   0.35366   0.36219
 Alpha virt. eigenvalues --    0.38064   0.38758   0.39423   0.40928   0.41832
 Alpha virt. eigenvalues --    0.42751   0.42960   0.43836   0.44001   0.44405
 Alpha virt. eigenvalues --    0.44852   0.45676   0.46222   0.47183   0.47983
 Alpha virt. eigenvalues --    0.48361   0.49021   0.49759   0.50233   0.50898
 Alpha virt. eigenvalues --    0.51241   0.52029   0.52473   0.53578   0.53916
 Alpha virt. eigenvalues --    0.54175   0.55008   0.55714   0.56087   0.56473
 Alpha virt. eigenvalues --    0.56806   0.57464   0.57832   0.58430   0.58728
 Alpha virt. eigenvalues --    0.59115   0.60470   0.60896   0.61191   0.61552
 Alpha virt. eigenvalues --    0.61920   0.62457   0.62645   0.63077   0.63148
 Alpha virt. eigenvalues --    0.63746   0.63879   0.64312   0.64790   0.65073
 Alpha virt. eigenvalues --    0.65287   0.65574   0.66026   0.66255   0.66843
 Alpha virt. eigenvalues --    0.67122   0.67226   0.67693   0.67993   0.68314
 Alpha virt. eigenvalues --    0.68707   0.68940   0.69147   0.69563   0.69690
 Alpha virt. eigenvalues --    0.69772   0.70509   0.71082   0.71384   0.72052
 Alpha virt. eigenvalues --    0.72460   0.72597   0.73176   0.73880   0.74155
 Alpha virt. eigenvalues --    0.74333   0.75186   0.75450   0.75809   0.76207
 Alpha virt. eigenvalues --    0.77108   0.77446   0.77590   0.78210   0.78334
 Alpha virt. eigenvalues --    0.79102   0.79422   0.80131   0.80444   0.81439
 Alpha virt. eigenvalues --    0.81797   0.82526   0.83275   0.83643   0.83974
 Alpha virt. eigenvalues --    0.84139   0.85487   0.85706   0.85969   0.86443
 Alpha virt. eigenvalues --    0.87238   0.87956   0.88815   0.89556   0.89927
 Alpha virt. eigenvalues --    0.90774   0.91760   0.92318   0.92779   0.93359
 Alpha virt. eigenvalues --    0.94772   0.95640   0.95802   0.96510   0.96633
 Alpha virt. eigenvalues --    0.97311   0.97808   0.98746   0.99570   1.00223
 Alpha virt. eigenvalues --    1.00640   1.00894   1.01241   1.02952   1.03621
 Alpha virt. eigenvalues --    1.05233   1.06497   1.07044   1.07666   1.08642
 Alpha virt. eigenvalues --    1.10161   1.10524   1.11594   1.12311   1.12973
 Alpha virt. eigenvalues --    1.13997   1.15087   1.16971   1.17461   1.18537
 Alpha virt. eigenvalues --    1.18991   1.19960   1.21355   1.22502   1.23285
 Alpha virt. eigenvalues --    1.24609   1.24951   1.25996   1.27009   1.28453
 Alpha virt. eigenvalues --    1.28908   1.29729   1.29847   1.30323   1.31423
 Alpha virt. eigenvalues --    1.31764   1.32356   1.32950   1.34058   1.34322
 Alpha virt. eigenvalues --    1.34802   1.36323   1.37167   1.37374   1.37956
 Alpha virt. eigenvalues --    1.38769   1.39228   1.40167   1.40485   1.40938
 Alpha virt. eigenvalues --    1.41359   1.42686   1.42775   1.43168   1.43785
 Alpha virt. eigenvalues --    1.44320   1.45050   1.45264   1.45585   1.45825
 Alpha virt. eigenvalues --    1.46552   1.46888   1.48031   1.48566   1.49790
 Alpha virt. eigenvalues --    1.50352   1.50604   1.51388   1.51649   1.52728
 Alpha virt. eigenvalues --    1.52975   1.53445   1.54036   1.54903   1.55093
 Alpha virt. eigenvalues --    1.55892   1.56479   1.56694   1.57750   1.58071
 Alpha virt. eigenvalues --    1.58223   1.60864   1.61206   1.61558   1.61942
 Alpha virt. eigenvalues --    1.62727   1.63170   1.64192   1.64396   1.64750
 Alpha virt. eigenvalues --    1.64839   1.65487   1.66246   1.66830   1.67211
 Alpha virt. eigenvalues --    1.67287   1.68634   1.68953   1.69376   1.69657
 Alpha virt. eigenvalues --    1.69867   1.70105   1.70733   1.71309   1.71890
 Alpha virt. eigenvalues --    1.72026   1.72504   1.73052   1.73692   1.73954
 Alpha virt. eigenvalues --    1.74195   1.74621   1.74879   1.75343   1.75578
 Alpha virt. eigenvalues --    1.75707   1.76220   1.76893   1.77009   1.77703
 Alpha virt. eigenvalues --    1.78171   1.78451   1.79469   1.80126   1.80360
 Alpha virt. eigenvalues --    1.80795   1.81453   1.82470   1.82847   1.83317
 Alpha virt. eigenvalues --    1.83731   1.84160   1.84525   1.85350   1.86000
 Alpha virt. eigenvalues --    1.86188   1.86905   1.87556   1.88854   1.89199
 Alpha virt. eigenvalues --    1.89625   1.90357   1.91460   1.91739   1.91965
 Alpha virt. eigenvalues --    1.92736   1.93797   1.94687   1.95167   1.96318
 Alpha virt. eigenvalues --    1.96668   1.97388   1.98189   1.98998   1.99490
 Alpha virt. eigenvalues --    2.00062   2.00726   2.01153   2.02114   2.02402
 Alpha virt. eigenvalues --    2.03060   2.03522   2.04573   2.06007   2.06210
 Alpha virt. eigenvalues --    2.06590   2.06817   2.06868   2.07810   2.08453
 Alpha virt. eigenvalues --    2.09217   2.09951   2.11000   2.11383   2.12973
 Alpha virt. eigenvalues --    2.13811   2.14069   2.15469   2.15608   2.17183
 Alpha virt. eigenvalues --    2.18168   2.19153   2.19873   2.21679   2.22580
 Alpha virt. eigenvalues --    2.23394   2.24190   2.24292   2.25232   2.25959
 Alpha virt. eigenvalues --    2.26350   2.26591   2.28084   2.28847   2.29635
 Alpha virt. eigenvalues --    2.30146   2.31660   2.33769   2.36435   2.37770
 Alpha virt. eigenvalues --    2.37990   2.39351   2.39956   2.40604   2.40959
 Alpha virt. eigenvalues --    2.41238   2.41570   2.42523   2.43337   2.43935
 Alpha virt. eigenvalues --    2.44589   2.45587   2.45906   2.46385   2.46994
 Alpha virt. eigenvalues --    2.48394   2.48764   2.48956   2.49583   2.50580
 Alpha virt. eigenvalues --    2.51197   2.51537   2.52079   2.52976   2.53258
 Alpha virt. eigenvalues --    2.53722   2.53928   2.55221   2.55472   2.56618
 Alpha virt. eigenvalues --    2.56894   2.57475   2.58029   2.58610   2.59049
 Alpha virt. eigenvalues --    2.59263   2.60667   2.62391   2.63854   2.64539
 Alpha virt. eigenvalues --    2.66399   2.66925   2.68261   2.69391   2.70466
 Alpha virt. eigenvalues --    2.71558   2.71613   2.72075   2.73113   2.74497
 Alpha virt. eigenvalues --    2.77112   2.77536   2.77888   2.79013   2.80818
 Alpha virt. eigenvalues --    2.81088   2.82826   2.82991   2.84110   2.86390
 Alpha virt. eigenvalues --    2.90641   2.93755   2.98561   3.01061   3.07241
 Alpha virt. eigenvalues --    3.09966   3.14135   3.14617   3.19403   3.49702
 Alpha virt. eigenvalues --    3.59990   3.88935  34.87917  34.98589  35.01810
 Alpha virt. eigenvalues --   45.99451
  Beta  occ. eigenvalues --  -77.26415 -19.25185 -19.12655 -19.12044 -14.44440
  Beta  occ. eigenvalues --  -14.44123 -10.30657 -10.30617 -10.30032 -10.27366
  Beta  occ. eigenvalues --  -10.27010 -10.26457 -10.26455 -10.26446 -10.26397
  Beta  occ. eigenvalues --  -10.26364 -10.26284 -10.25318 -10.23528 -10.23312
  Beta  occ. eigenvalues --  -10.23188 -10.22840 -10.22716 -10.21200 -10.20718
  Beta  occ. eigenvalues --  -10.20454  -6.64327  -4.77992  -4.77883  -4.77627
  Beta  occ. eigenvalues --   -3.03817  -1.87439  -1.86551  -1.86213  -1.11802
  Beta  occ. eigenvalues --   -1.01569  -0.97335  -0.89684  -0.86104  -0.85170
  Beta  occ. eigenvalues --   -0.84386  -0.83391  -0.79508  -0.78672  -0.77746
  Beta  occ. eigenvalues --   -0.75355  -0.71566  -0.71289  -0.70994  -0.70154
  Beta  occ. eigenvalues --   -0.69524  -0.67045  -0.66896  -0.64015  -0.63143
  Beta  occ. eigenvalues --   -0.58312  -0.56716  -0.55531  -0.54718  -0.54129
  Beta  occ. eigenvalues --   -0.52799  -0.51834  -0.50753  -0.49572  -0.48987
  Beta  occ. eigenvalues --   -0.47310  -0.46762  -0.46172  -0.46066  -0.45576
  Beta  occ. eigenvalues --   -0.45107  -0.44920  -0.44771  -0.44009  -0.43984
  Beta  occ. eigenvalues --   -0.43765  -0.43086  -0.42658  -0.42138  -0.41470
  Beta  occ. eigenvalues --   -0.40952  -0.40762  -0.39938  -0.39436  -0.39091
  Beta  occ. eigenvalues --   -0.38663  -0.38415  -0.37708  -0.37361  -0.37071
  Beta  occ. eigenvalues --   -0.36671  -0.36344  -0.36095  -0.35746  -0.35096
  Beta  occ. eigenvalues --   -0.34937  -0.34407  -0.34121  -0.33518  -0.33337
  Beta  occ. eigenvalues --   -0.32756  -0.31995  -0.30456  -0.28495  -0.28018
  Beta  occ. eigenvalues --   -0.27519  -0.26420  -0.25071  -0.23542  -0.23388
  Beta  occ. eigenvalues --   -0.19372  -0.15932
  Beta virt. eigenvalues --   -0.04905  -0.03055  -0.02447   0.00382   0.00761
  Beta virt. eigenvalues --    0.02895   0.03187   0.03856   0.04217   0.04881
  Beta virt. eigenvalues --    0.05972   0.06843   0.07117   0.08037   0.08362
  Beta virt. eigenvalues --    0.08526   0.09505   0.09968   0.10014   0.10464
  Beta virt. eigenvalues --    0.11020   0.11389   0.12114   0.12143   0.12646
  Beta virt. eigenvalues --    0.12723   0.12799   0.13417   0.14124   0.14332
  Beta virt. eigenvalues --    0.14910   0.15066   0.15332   0.15813   0.16291
  Beta virt. eigenvalues --    0.16693   0.17273   0.17494   0.17888   0.18203
  Beta virt. eigenvalues --    0.18500   0.18726   0.19161   0.19632   0.19923
  Beta virt. eigenvalues --    0.20383   0.20596   0.20870   0.21066   0.21780
  Beta virt. eigenvalues --    0.22221   0.22654   0.22984   0.23097   0.23328
  Beta virt. eigenvalues --    0.23788   0.24224   0.24782   0.25091   0.26380
  Beta virt. eigenvalues --    0.26649   0.27043   0.27450   0.27481   0.28201
  Beta virt. eigenvalues --    0.28785   0.30119   0.30614   0.31065   0.31946
  Beta virt. eigenvalues --    0.32200   0.33554   0.34181   0.34660   0.35400
  Beta virt. eigenvalues --    0.36253   0.38159   0.39032   0.39503   0.40939
  Beta virt. eigenvalues --    0.41865   0.42790   0.43015   0.43892   0.44024
  Beta virt. eigenvalues --    0.44455   0.44878   0.45724   0.46231   0.47215
  Beta virt. eigenvalues --    0.48001   0.48379   0.49037   0.49779   0.50258
  Beta virt. eigenvalues --    0.50942   0.51263   0.52038   0.52508   0.53613
  Beta virt. eigenvalues --    0.53944   0.54217   0.55024   0.55734   0.56111
  Beta virt. eigenvalues --    0.56480   0.56836   0.57560   0.57856   0.58452
  Beta virt. eigenvalues --    0.58762   0.59146   0.60500   0.60939   0.61219
  Beta virt. eigenvalues --    0.61572   0.61933   0.62493   0.62647   0.63085
  Beta virt. eigenvalues --    0.63194   0.63763   0.63895   0.64338   0.64829
  Beta virt. eigenvalues --    0.65079   0.65296   0.65595   0.66044   0.66271
  Beta virt. eigenvalues --    0.66852   0.67134   0.67270   0.67751   0.68003
  Beta virt. eigenvalues --    0.68337   0.68726   0.68972   0.69174   0.69576
  Beta virt. eigenvalues --    0.69728   0.69799   0.70512   0.71102   0.71459
  Beta virt. eigenvalues --    0.72061   0.72482   0.72618   0.73198   0.73903
  Beta virt. eigenvalues --    0.74219   0.74360   0.75191   0.75469   0.75829
  Beta virt. eigenvalues --    0.76223   0.77127   0.77472   0.77620   0.78229
  Beta virt. eigenvalues --    0.78372   0.79139   0.79526   0.80154   0.80475
  Beta virt. eigenvalues --    0.81485   0.81842   0.82546   0.83309   0.83654
  Beta virt. eigenvalues --    0.83997   0.84186   0.85522   0.85720   0.86043
  Beta virt. eigenvalues --    0.86495   0.87314   0.88024   0.88905   0.89569
  Beta virt. eigenvalues --    0.89941   0.90853   0.91772   0.92350   0.92796
  Beta virt. eigenvalues --    0.93389   0.94807   0.95688   0.95860   0.96523
  Beta virt. eigenvalues --    0.96702   0.97348   0.97836   0.98870   0.99618
  Beta virt. eigenvalues --    1.00261   1.00684   1.00951   1.01260   1.03065
  Beta virt. eigenvalues --    1.03710   1.05243   1.06563   1.07096   1.07767
  Beta virt. eigenvalues --    1.08699   1.10198   1.10549   1.11791   1.12568
  Beta virt. eigenvalues --    1.13382   1.14094   1.15101   1.17274   1.17610
  Beta virt. eigenvalues --    1.18686   1.19174   1.20481   1.21525   1.22804
  Beta virt. eigenvalues --    1.23358   1.24674   1.25090   1.26113   1.27108
  Beta virt. eigenvalues --    1.28586   1.29231   1.30017   1.30224   1.30481
  Beta virt. eigenvalues --    1.31669   1.31799   1.32566   1.33051   1.34139
  Beta virt. eigenvalues --    1.34517   1.35002   1.36606   1.37207   1.37515
  Beta virt. eigenvalues --    1.38017   1.38782   1.39317   1.40185   1.40537
  Beta virt. eigenvalues --    1.41079   1.41516   1.42753   1.42913   1.43246
  Beta virt. eigenvalues --    1.43856   1.44364   1.45081   1.45284   1.45822
  Beta virt. eigenvalues --    1.45878   1.46629   1.46943   1.48031   1.48589
  Beta virt. eigenvalues --    1.49824   1.50410   1.50695   1.51440   1.51671
  Beta virt. eigenvalues --    1.52891   1.53002   1.53454   1.54058   1.55003
  Beta virt. eigenvalues --    1.55327   1.56007   1.56607   1.56883   1.57763
  Beta virt. eigenvalues --    1.58113   1.58273   1.60879   1.61253   1.61588
  Beta virt. eigenvalues --    1.62028   1.62772   1.63282   1.64198   1.64450
  Beta virt. eigenvalues --    1.64776   1.64883   1.65500   1.66337   1.66847
  Beta virt. eigenvalues --    1.67216   1.67415   1.68647   1.68965   1.69391
  Beta virt. eigenvalues --    1.69668   1.69872   1.70137   1.70741   1.71318
  Beta virt. eigenvalues --    1.71902   1.72091   1.72515   1.73073   1.73707
  Beta virt. eigenvalues --    1.73988   1.74211   1.74636   1.74888   1.75372
  Beta virt. eigenvalues --    1.75682   1.75811   1.76266   1.76912   1.77040
  Beta virt. eigenvalues --    1.77724   1.78198   1.78565   1.79479   1.80162
  Beta virt. eigenvalues --    1.80381   1.80865   1.81463   1.82502   1.82872
  Beta virt. eigenvalues --    1.83361   1.83800   1.84189   1.84577   1.85373
  Beta virt. eigenvalues --    1.86018   1.86208   1.86929   1.87693   1.88895
  Beta virt. eigenvalues --    1.89217   1.89633   1.90377   1.91531   1.91749
  Beta virt. eigenvalues --    1.91992   1.92782   1.93830   1.94738   1.95213
  Beta virt. eigenvalues --    1.96322   1.96706   1.97413   1.98209   1.99022
  Beta virt. eigenvalues --    1.99503   2.00095   2.00735   2.01164   2.02123
  Beta virt. eigenvalues --    2.02426   2.03087   2.03541   2.04638   2.06020
  Beta virt. eigenvalues --    2.06224   2.06602   2.06838   2.06899   2.07828
  Beta virt. eigenvalues --    2.08505   2.09267   2.09960   2.11037   2.11463
  Beta virt. eigenvalues --    2.12987   2.13837   2.14132   2.15496   2.15750
  Beta virt. eigenvalues --    2.17235   2.18198   2.19216   2.19890   2.21717
  Beta virt. eigenvalues --    2.22603   2.23407   2.24211   2.24331   2.25248
  Beta virt. eigenvalues --    2.26028   2.26373   2.26620   2.28107   2.28885
  Beta virt. eigenvalues --    2.29659   2.30160   2.31725   2.33824   2.36468
  Beta virt. eigenvalues --    2.37840   2.38626   2.39397   2.39962   2.40612
  Beta virt. eigenvalues --    2.41059   2.41286   2.41589   2.42536   2.43407
  Beta virt. eigenvalues --    2.44081   2.44771   2.45630   2.45928   2.46444
  Beta virt. eigenvalues --    2.47074   2.48459   2.48816   2.49028   2.49609
  Beta virt. eigenvalues --    2.50605   2.51246   2.51585   2.52097   2.53001
  Beta virt. eigenvalues --    2.53299   2.53770   2.53960   2.55274   2.55618
  Beta virt. eigenvalues --    2.56655   2.56909   2.57526   2.58083   2.58701
  Beta virt. eigenvalues --    2.59064   2.59318   2.60738   2.62401   2.64028
  Beta virt. eigenvalues --    2.64561   2.66435   2.67316   2.68361   2.69629
  Beta virt. eigenvalues --    2.70648   2.71652   2.72217   2.72766   2.73770
  Beta virt. eigenvalues --    2.77164   2.77678   2.78126   2.78906   2.80942
  Beta virt. eigenvalues --    2.81579   2.82763   2.83391   2.85129   2.86907
  Beta virt. eigenvalues --    2.87439   2.91876   2.94204   2.99073   3.01234
  Beta virt. eigenvalues --    3.07938   3.10106   3.14125   3.14990   3.20996
  Beta virt. eigenvalues --    3.49708   3.59973   3.88930  34.88154  34.98940
  Beta virt. eigenvalues --   35.02049  45.99693
          Condensed to atoms (all electrons):
          Atomic-Atomic Spin Densities.
 Mulliken charges and spin densities:
               1          2
[...]
 .00000463,0.00002922,-0.00003098,0.00002058,-0.00006724,-0.00002862,-0
 .00002062,0.00000646,-0.00001512,0.00000711,0.00000231,0.00000586,-0.0
 0000043,0.00002465,0.00002818,0.00003329,-0.00000749,0.00000371,0.0000
 1231,0.00000182,0.00000744,-0.00000491,0.00000211,0.00000949,-0.000006
 11,-0.00005627,-0.00004904,0.00001259,0.00001230,-0.00002130,-0.000006
 02,0.00003431,-0.00000694,-0.00008189,0.00005099,0.00016642,0.00000744
 ,-0.00001545,-0.00000963,-0.00000697,0.00012462,-0.00001165,-0.0000363
 7,-0.00025159,-0.00014818,0.00021776,-0.00000294,-0.00003958,-0.000068
 85,0.00001385,-0.00001130,0.00001611,-0.00000278,-0.00000196,0.0000001
 5,0.00002554,0.00000359,0.00004215,0.00017399,0.00000146,-0.00001002,-
 0.00043187,0.00008122,0.00008485,-0.00000933,-0.00000181,-0.00001220,-
 0.00001178,-0.00001868,-0.00001400,-0.00000028,-0.00000294,-0.00000886
 ,0.00000369,-0.00000060,-0.00000097,-0.00000304,-0.00000621,0.00001194
 ,0.00004663,-0.00002364,0.00002234,-0.00000015,-0.00001074,0.00001309,
 -0.00003926,-0.00000907,0.00002993,0.00001074,0.00001913,-0.00000495,0
 .00000239,0.00000426,0.00001101,-0.00000905,-0.00000948,0.00000611,0.0
 0000186,0.00000412,-0.00000359,0.00000248,-0.00000457,0.00000085,0.001
 14362,0.00197582,-0.00058214,-0.00043098,0.00025532,0.00014091,-0.0000
 1301,0.00000678,0.00000468,-0.00001323,-0.00002464,-0.00003630,0.00000
 393,0.00001060,0.00001262,0.00000518,0.00000185,-0.00000513,0.00000749
 ,-0.00000232,0.00001016,0.00063260,-0.00069519,-0.00041434,-0.00000653
 ,-0.00000868,-0.00001097,0.00000105,-0.00001351,-0.00001740,-0.0028873
 9,-0.00112294,0.00304314,-0.00091650,-0.00283059,0.00125445,0.00002147
 ,-0.00000026,-0.00000706,-0.00007561,0.00072426,-0.00025668,-0.0000203
 4,-0.00009955,0.00003348,0.00000765,0.00003323,-0.00000882,0.00823150,
 -0.01560653,-0.00545772,0.07013807,-0.32367560,-0.03867595,-0.00017386
 ,0.00095910,-0.00019433,-0.07528604,0.34021889,-0.00000109,-0.00001634
 ,-0.00000881,0.00004462,-0.00000636,-0.00000052,-0.00000458,-0.0000018
 6,-0.00000619,-0.00000020,0.00000025,-0.00000126,0.00000255,-0.0000000
 3,0.00000006,0.00006595,-0.00001986,0.00005464,-0.00000045,0.00000034,
 -0.00000287,-0.00003680,0.00001767,0.00000114,-0.00009934,-0.00008943,
 -0.00005387,-0.00001052,0.00000735,-0.00000593,0.00000361,0.00000684,0
 .00000286,-0.00001224,-0.00002389,-0.00002674,-0.00000023,0.00000158,0
 .00000267,0.00000324,-0.00000511,0.00000387,-0.00000328,0.00000761,-0.
 00000997,0.00003533,0.00002219,-0.00001701,-0.00000816,0.00000945,0.00
 000928,0.00001794,0.00005115,0.00007237,-0.00037084,0.00003206,-0.0002
 6475,0.00001055,-0.00000651,0.00000675,0.00032587,-0.00007728,-0.00006
 821,-0.00062296,-0.00074902,-0.00005906,-0.00001774,0.00003652,0.00003
 130,-0.00000854,0.00000175,-0.00001216,-0.00000275,0.00000303,-0.00000
 272,-0.00003084,0.00001535,-0.00001967,-0.00008564,0.00005218,0.000008
 50,0.00028479,-0.00006459,-0.00003360,-0.00000527,0.00000957,-0.000030
 35,-0.00000506,-0.00000058,0.00000810,-0.00000452,-0.00000078,-0.00002
 169,0.00000031,0.00000487,0.00000141,0.00000195,0.00000104,-0.00000228
 ,0.00005033,-0.00003506,0.00005325,-0.00000951,0.00000216,-0.00001167,
 0.00005771,-0.00002639,0.00000784,-0.00000568,-0.00000387,0.00000249,0
 .00000353,-0.00000098,-0.00000293,-0.00000849,-0.00000390,-0.00000847,
 0.00000190,-0.00000091,0.00000220,-0.00000111,0.00000446,0.00000056,0.
 00700874,-0.00040174,0.00249009,-0.00052937,0.00021491,-0.00208000,-0.
 00001499,0.00000431,-0.00001451,0.00001606,-0.00000280,0.00001497,0.00
 000188,0.00001051,0.00001626,0.00000244,-0.00000449,0.00000071,0.00001
 384,-0.00000548,0.00001042,-0.00066183,0.00058228,-0.00000477,-0.00000
 364,-0.00000800,-0.00001541,0.00000893,0.00000435,0.00000995,0.0053651
 0,0.00288173,0.00352362,0.00415239,-0.01835245,0.00245554,-0.00000415,
 -0.00000294,0.00000260,-0.00251682,0.00006547,-0.00195040,0.00002422,-
 0.00008543,0.00006918,0.00001015,-0.00000336,-0.00002821,-0.00341652,0
 .01419077,0.00650166,0.01932926,-0.03870783,-0.05315562,-0.00244240,-0
 .00047426,-0.00200244,-0.02584946,0.04093104,0.04457703,0.00001139,0.0
 0005496,0.00014353,-0.00000605,0.00004230,0.00003875,-0.00012292,-0.00
 014192,0.00059427,-0.00011191,-0.00006662,-0.00079041,0.00015529,-0.00
 028297,0.00037167,0.00708869,0.00076055,0.00521650,0.00012871,-0.00037
 304,0.00049150,-0.00722319,0.00114740,0.00143566,0.00031866,-0.0001551
 3,0.00011965,-0.00000599,0.00001013,-0.00015373,-0.00025381,-0.0001117
 7,0.00035957,-0.00002634,-0.00018334,0.00016701,-0.00119672,-0.0004169
 1,-0.00025774,0.00006675,0.00019161,-0.00015863,0.00061195,0.00010650,
 -0.00042892,0.00121523,0.00035201,0.00001213,0.00018732,0.00049744,-0.
 00030422,0.00010729,0.00106236,-0.00042658,-0.02101719,-0.02609470,-0.
 05427733,-0.00023232,0.00071866,0.00108800,0.00253523,0.00061579,0.001
 17065,0.00094880,0.00018263,-0.00035274,0.00181590,0.00062498,-0.00117
 272,0.00002768,0.00009953,-0.00023540,0.00003408,-0.00025239,0.0005488
 3,0.00036495,-0.00001972,0.00019447,-0.00124238,-0.00130395,-0.0009729
 9,-0.00865602,-0.00252929,0.00570604,-0.00008079,-0.00034809,0.0001945
 1,0.00159148,0.00066299,0.00095883,-0.00136307,-0.00023362,0.00122618,
 0.00006672,0.00008811,-0.00023972,0.00023855,0.00042975,-0.00049624,-0
 .00271974,0.00017705,-0.00147920,0.00015292,-0.00001598,-0.00032094,-0
 .53954053,-0.17479119,-0.42089670,-0.00073400,-0.00013937,-0.00038704,
 -0.00003495,0.00022401,-0.00045229,0.00028458,0.00080893,-0.00157655,0
 .00003150,0.00009925,-0.00020791,0.00021109,-0.00010609,0.00081967,-0.
 00066452,-0.00191153,0.00029286,0.00036234,0.00710598,0.00247748,0.000
 88032,0.00002429,0.00073987,0.00008634,-0.00002870,-0.00000258,-0.0000
 9783,-0.00120555,-0.00031412,-0.00012469,-0.00008648,-0.00010477,0.000
 08409,0.00031699,-0.00022784,0.00068853,0.00018276,-0.00094223,-0.0000
 4665,-0.00024436,0.00043053,0.00007328,-0.00009574,0.00004918,0.000128
 46,-0.00279548,-0.00086705,-0.00004673,0.00060505,0.00005966,-0.000158
 15,-0.00007608,0.00076974,-0.00007656,-0.00014397,0.00001663,0.0005044
 9,-0.00022631,-0.00061697,0.00056283,-0.00043098,0.00005591,0.00006764
 ,0.00108779,-0.00029175,0.00024293,-0.00162533,-0.00004985,0.00008705,
 -0.00014173,-0.00017551,-0.00001757,0.00000531,-0.00004184,0.56446194,
 0.00001605,0.00006252,0.00004255,-0.00000957,-0.00001164,0.00014667,-0
 .00008003,-0.00008756,0.00024785,-0.00018628,-0.00006446,-0.00042298,0
 .00005789,-0.00009792,0.00014356,-0.00153811,0.00032291,-0.00030230,0.
 00002468,-0.00014475,0.00030509,-0.00246924,-0.00790653,-0.00082641,0.
 00022469,-0.00002953,-0.00024659,-0.00000981,0.00002654,-0.00005617,-0
 .00002170,0.00001696,0.00013026,-0.00003007,-0.00009870,0.00004641,-0.
 00063744,-0.00029972,-0.00011642,0.00002924,0.00009759,-0.00008510,0.0
 0020156,0.00009293,-0.00016211,0.00076276,0.00031353,-0.00015531,0.000
 07775,0.00025617,-0.00016970,0.00011164,0.00042474,-0.00016322,-0.0200
 5335,0.02707994,-0.01833216,-0.00019404,0.00028371,0.00050373,0.001404
 32,0.00043282,0.00092755,0.00027307,0.00015728,-0.00029724,0.00063571,
 0.00037993,-0.00053711,0.00001564,0.00005541,-0.00009153,0.00002541,-0
 .00012122,0.00023619,0.00020616,-0.00000806,0.00010444,-0.00062454,-0.
 00058159,-0.00011919,-0.00317177,-0.00192302,0.00209180,-0.00000090,-0
 .00009129,0.00009362,0.00062964,0.00026232,0.00039985,-0.00049701,-0.0
 0051303,0.00047644,-0.00004307,-0.00001506,-0.00003448,0.00009436,0.00
 016911,-0.00020759,-0.00100429,-0.00034198,-0.00073717,0.00006408,-0.0
 0000006,-0.00011719,-0.17755782,-0.11841932,-0.15474224,-0.00027069,-0
 .00006066,-0.00013309,-0.00010631,-0.00062002,0.00043700,-0.00023591,0
 .00112646,-0.00086009,0.00000915,0.00004187,-0.00010462,0.00011090,-0.
 00001067,0.00024470,-0.00006537,-0.00090794,0.00018199,0.00211854,0.00
 393820,0.00242798,0.00020839,0.00011410,0.00017582,0.00003692,0.000003
 31,0.00000786,-0.00016304,-0.00007654,0.00025255,-0.00007418,-0.000023
 09,-0.00002013,0.00001714,0.00009176,-0.00006656,0.00035666,0.00046621
 ,-0.00022471,0.00001189,-0.00008739,0.00009996,0.00001681,-0.00003182,
 0.00002641,0.00023693,-0.00124609,0.00001257,-0.00013794,0.00036619,-0
 .00003884,-0.00017435,-0.00008723,0.00070846,-0.00002525,-0.00004097,0
 .00000884,0.00013149,-0.00027704,-0.00019639,0.00018141,-0.00010525,0.
 00000043,-0.00008015,0.00032666,-0.00025775,0.00016698,-0.00057128,-0.
 00011310,0.00003149,-0.00006851,-0.00004464,0.00002000,0.00000678,0.00
 001272,0.19885138,0.09763579,0.00009729,0.00006644,0.00017749,-0.00005
 965,0.00007042,-0.00005039,-0.00023170,-0.00017389,0.00070774,-0.00021
 108,-0.00000576,-0.00092441,0.00010759,-0.00025820,0.00025974,0.004319
 19,0.00070370,0.00341596,-0.00000268,-0.00018222,0.00036064,-0.0040776
 1,-0.00014604,-0.00636315,0.00051671,-0.00039067,0.00035751,-0.0000399
 2,0.00000705,-0.00013969,-0.00033761,-0.00004331,0.00025972,-0.0000473
 1,-0.00013726,0.00005287,-0.00082525,-0.00027116,-0.00040459,0.0000811
 4,0.00011545,-0.00010089,0.00057574,0.00010261,-0.00046007,0.00084818,
 0.00006813,-0.00013179,0.00018974,0.00034596,-0.00022462,0.00012558,0.
 00101596,-0.00026865,-0.04267534,-0.01998314,-0.00906255,-0.00035147,0
 .00060041,0.00082660,-0.00004085,0.00019629,0.00022336,0.00073163,-0.0
 0008274,0.00012935,0.00058828,0.00030778,-0.00052190,-0.00002308,0.000
 02434,-0.00017765,-0.00000200,-0.00009464,0.00011986,0.00028011,0.0000
 2422,0.00001064,-0.00043246,-0.00096706,-0.00230160,-0.00279186,-0.000
 48395,0.00826154,-0.00017227,-0.00036532,0.00009699,0.00059101,0.00085
 758,0.00057258,-0.00115938,0.00134399,0.00129272,0.00008614,0.00009013
 ,-0.00028250,0.00022863,0.00030583,-0.00031779,-0.00154512,-0.00083985
 ,-0.00264878,0.00006009,-0.00002025,-0.00017547,-0.42540996,-0.1534733
 9,-0.42055230,-0.00036622,-0.00004490,-0.00014781,0.00228032,0.0017347
 9,-0.00527199,0.00038286,0.00043061,0.00074705,0.00003990,0.00006843,-
 0.00009413,0.00038398,0.00019147,-0.00029246,-0.00007683,-0.00164414,0
 .00008762,0.00104477,0.00617741,0.00278867,0.00096121,0.00025575,0.001
 17630,0.00012214,-0.00003103,-0.00002834,0.00006420,-0.00129492,-0.000
 55124,-0.00008285,-0.00007909,0.00002069,0.00023067,0.00048633,-0.0003
 6111,0.00066900,0.00024806,-0.00111191,-0.00004836,-0.00030629,0.00041
 609,0.00005029,-0.00004591,0.00005062,0.00049960,-0.00209007,-0.000778
 02,-0.00017412,0.00050180,0.00013954,0.00003773,-0.00002480,0.00005488
 ,-0.00007679,-0.00014802,-0.00000147,0.00031733,-0.00006036,-0.0007113
 2,0.00053220,-0.00048032,0.00009425,-0.00011500,0.00079769,-0.00019595
 ,0.00023681,-0.00134505,-0.00008576,0.00005809,-0.00008195,-0.00010690
 ,-0.00001302,-0.00002223,-0.00001250,0.46380492,0.16864192,0.43262926,
 -0.00006403,0.00004025,0.00012806,-0.00007963,0.00008420,-0.00011006,-
 0.00005612,-0.00004303,-0.00006075,0.00015227,-0.00001641,-0.00017245,
 0.00060422,-0.00050642,0.00100979,0.00369739,0.00166716,0.00407693,0.0
 0000074,-0.00006965,0.00003148,-0.08292183,0.15940722,0.00358162,0.000
 53472,-0.00027648,0.00052560,0.00015901,-0.00003093,-0.00033619,-0.000
 18136,0.00001523,-0.00000101,-0.00040656,0.00015184,-0.00008270,-0.000
 04134,-0.00008051,0.00008930,0.00007624,0.00000420,-0.00013528,0.00029
 643,-0.00047188,0.00076528,0.00001397,0.00003754,-0.00005278,0.0000520
 6,0.00001751,-0.00001197,0.00011378,0.00092345,-0.00140318,-0.02181289
 ,0.01837024,-0.00705481,-0.00079915,-0.00001689,0.00032400,-0.00062726
 ,-0.00000571,0.00024378,0.00066635,-0.00082732,0.00111743,-0.00004592,
 0.00042356,-0.00006074,-0.00013190,-0.00003682,0.00006102,-0.00001581,
 -0.00001365,0.00000615,0.00052013,0.00034840,0.00045645,0.00001312,-0.
 00005254,-0.00017303,-0.00096438,0.00037796,0.00048279,0.00009918,-0.0
 0002421,0.00013875,0.00005730,0.00006106,0.00004532,0.00008376,0.00004
 008,-0.00001462,-0.00002747,0.00000139,0.00004092,0.00002818,0.0000296
 4,-0.00002178,-0.00017144,0.00005989,0.00000087,-0.00002031,-0.0000164
 8,-0.00005025,0.00120281,-0.00553516,-0.00113492,-0.00002810,-0.000030
 15,0.00001022,-0.00002141,0.00000329,0.00000505,-0.00001272,0.00002963
 ,-0.00002876,-0.00000172,-0.00000090,-0.00001774,0.00001750,0.00002331
 ,0.00000604,-0.00028693,-0.00038013,0.00044548,-0.00056654,0.00003293,
 -0.00026175,0.00002381,-0.00004309,0.00001323,-0.00004603,-0.00003679,
 0.00000570,-0.00008339,0.00007020,-0.00003957,0.00000546,-0.00001291,-
 0.00000648,0.00000292,0.00001472,-0.00000291,0.00009503,-0.00002626,-0
 .00013121,-0.00000471,0.00000559,0.00002530,0.00002416,-0.00001021,-0.
 00000561,0.00037460,-0.00023975,-0.00035537,-0.00006084,0.00004591,-0.
 00001679,0.00000076,-0.00001098,0.00000578,-0.00000077,-0.00000514,0.0
 0000170,-0.00002842,0.00000717,0.00003188,0.00005107,-0.00006993,0.000
 01343,-0.00000502,0.00017104,0.00001251,-0.00000038,-0.00016117,0.0000
 1147,0.00001874,0.00000725,0.00000880,-0.00000263,-0.00001329,-0.00000
 626,-0.00062436,0.00210153,0.00024675,0.10115565,0.00002948,0.00001613
 ,-0.00000061,-0.00012136,0.00026713,-0.00015290,-0.00006888,-0.0001886
 0,-0.00006509,-0.00001084,0.00002945,-0.00029098,0.00008698,0.00063195
 ,0.00050140,0.00150946,0.00054965,0.00231574,-0.00000668,-0.00002971,0
 .00008790,0.17070395,-0.42533815,-0.01887036,0.00063328,-0.00005602,0.
 00000202,0.00006202,-0.00001420,-0.00010487,-0.00022139,0.00000884,-0.
 00017975,-0.00032594,-0.00042022,0.00023458,-0.00001551,-0.00004677,0.
 00011802,-0.00013412,-0.00002647,0.00016051,-0.00037975,-0.00018100,0.
 00114952,-0.00005951,-0.00006739,-0.00010045,0.00002716,-0.00001050,0.
 00001471,0.00075447,-0.00045077,0.00047241,0.00620397,0.00269867,0.003
 40138,0.00047374,-0.00039962,-0.00099495,-0.00007699,0.00033102,-0.000
 20309,-0.00089818,-0.00039393,0.00004974,0.00021213,0.00004340,-0.0001
 8973,0.00001382,-0.00000106,-0.00004512,-0.00000706,0.00000912,0.00000
 556,-0.00051079,0.00018812,0.00081104,-0.00001449,-0.00000727,-0.00016
 227,0.00001958,0.00058033,0.00062259,0.00019259,0.00003728,0.00016027,
 0.00006551,0.00002120,0.00004210,0.00000964,-0.00000338,0.00001851,-0.
 00001287,0.00000275,0.00004006,0.00000192,0.00001223,-0.00002499,0.000
 01065,0.00015548,0.00009272,-0.00001489,-0.00000166,-0.00000511,-0.001
 50530,-0.00212627,-0.00234369,0.00003457,-0.00001017,0.00005110,-0.000
 00917,0.00004195,-0.00001080,-0.00001394,-0.00004605,-0.00005887,0.000
 00169,-0.00000030,0.00000839,-0.00001549,-0.00000115,0.00001550,-0.000
 04362,-0.00011995,-0.00040003,-0.00045596,0.00030171,-0.00030970,-0.00
 002765,-0.00002702,-0.00005561,-0.00009603,0.00001357,0.00007399,-0.00
 008269,0.00004573,-0.00006943,0.00001344,-0.00000717,-0.00001488,0.000
 00929,0.00000795,-0.00000627,-0.00004179,-0.00002065,-0.00004967,-0.00
 001877,0.00002054,-0.00001034,0.00000548,0.00000729,0.00000231,0.00016
 155,-0.00030028,-0.00014329,-0.00014582,0.00014530,0.00011468,0.000009
 05,-0.00001256,0.00001483,-0.00000545,-0.00003025,-0.00000809,-0.00000
 788,0.00001737,0.00001838,0.00004114,-0.00001242,0.00000185,0.00000684
 ,0.00017947,0.00003327,0.00011149,-0.00018863,-0.00003400,0.00001694,-
 0.00001630,-0.00000570,-0.00000631,0.00000063,-0.00000402,-0.00055815,
 0.00041816,-0.00016261,-0.17550857,0.42377346,-0.00001881,-0.00004994,
 -0.00003560,0.00019653,-0.00015150,-0.00016234,0.00003952,0.00006507,0
 .00020963,-0.00008453,-0.00008025,-0.00025617,0.00052783,0.00132854,-0
 .00169432,0.00401707,0.00228631,-0.00120293,-0.00000415,0.00006983,-0.
 00001074,0.00662046,-0.02442853,-0.00806518,-0.00115210,0.00013405,-0.
 00065062,-0.00018983,0.00006787,0.00019304,0.00023992,-0.00027448,0.00
 053885,0.00070347,-0.00057717,-0.00093419,0.00007252,0.00006033,0.0000
 8405,-0.00041326,0.00004034,0.00044647,0.00103385,0.00112920,-0.001337
 60,0.00001769,-0.00009394,-0.00011993,-0.00007926,0.00000355,0.0000721
 9,-0.00059340,-0.00081051,0.00087786,-0.00845359,0.00748880,-0.0017911
 8,-0.00036910,0.00022488,0.00218637,-0.00027595,0.00033572,0.00008638,
 -0.00023308,0.00198802,-0.00115971,0.00041663,-0.00053572,0.00013913,0
 .00019277,-0.00007128,-0.00046137,0.00001111,0.00004081,-0.00005993,0.
 00056600,-0.00044983,-0.00204066,0.00000246,-0.00009585,-0.00018724,0.
 00024816,-0.00026346,0.00135708,-0.00037388,-0.00000120,-0.00036243,0.
 00005477,0.00009220,0.00010600,-0.00010361,0.00000983,-0.00001159,0.00
 001446,0.00000947,-0.00007672,-0.00000204,0.00001360,-0.00006342,0.000
 03602,-0.00010421,-0.00024360,0.00002847,-0.00004130,-0.00001962,-0.00
 033347,-0.00274287,0.00059390,-0.00025087,0.00040210,-0.00026150,0.000
 00183,-0.00002408,-0.00000085,0.00000135,0.00000892,-0.00001052,0.0000
 9831,0.00003539,-0.00005663,-0.00000176,0.00000790,0.00000500,0.000385
 64,-0.00080932,-0.00048837,0.00001021,0.00049780,0.00044872,-0.0000140
 0,0.00006604,0.00003213,-0.00003914,0.00008770,0.00005274,0.00011999,-
 0.00004116,0.00001080,-0.00002364,0.00000657,0.00001541,-0.00001358,-0
 .00005357,-0.00000114,0.00002541,-0.00007394,-0.00019194,0.00002468,-0
 .00004741,-0.00000902,-0.00017730,0.00009224,0.00013484,0.00005371,-0.
 00033221,-0.00006888,-0.00005761,0.00025865,0.00014224,-0.00003577,0.0
 0001013,0.00001195,-0.00000893,-0.00002613,0.00002256,-0.00006640,0.00
 011558,-0.00004226,0.00004344,-0.00005110,-0.00001940,0.00000501,0.000
 25594,0.00001453,0.00011106,-0.00029060,-0.00003536,0.00000669,-0.0000
 1718,-0.00003616,-0.00000639,0.00001627,-0.00000675,-0.00033171,0.0008
 4692,-0.00047059,-0.00221989,0.01444219,0.01486459\\0.00000094,0.00000
 279,0.00000233,-0.00000901,-0.00000063,-0.00000059,0.00000281,0.000000
 14,-0.00000049,0.00000623,0.00000237,-0.00000219,0.00001220,-0.0000115
 1,0.00000682,0.00000462,-0.00000807,0.00000025,0.00000269,0.00000206,0
 .00000144,-0.00001945,0.00003032,0.00000982,-0.00001106,-0.00001856,0.
 00000346,-0.00000101,-0.00000215,0.00000116,0.00000723,0.00000478,0.00
 000516,0.00000158,-0.00000207,-0.00001792,0.00000152,-0.00000148,-0.00
 000019,0.00000103,0.00000631,0.00000319,0.00001533,0.00001066,-0.00000
 315,-0.00001248,-0.00000926,0.00001197,-0.00000116,0.00000251,-0.00000
 267,0.00001854,0.00000442,-0.00000860,0.00000642,0.00000953,-0.0000240
 2,-0.00000107,0.00001149,-0.00001054,0.00001391,0.00001400,0.00001552,
 0.00000163,-0.00000202,-0.00000826,-0.00001118,0.00000120,0.00002382,-
 0.00000440,0.00000005,0.00000252,-0.00000607,-0.00000015,-0.00000265,-
 0.00000057,-0.00001306,0.00000304,-0.00000019,0.00000177,-0.00003105,-
 0.00000080,0.00001931,0.00001254,0.00000487,0.00000573,0.00000890,0.00
 000447,-0.00000840,0.00000385,0.00000704,0.00000453,-0.00000193,0.0000
 0364,0.00000221,0.00000076,-0.00000150,-0.00000145,-0.00000067,-0.0000
 0201,-0.00001097,0.00002142,-0.00000306,-0.00000237,0.00000013,-0.0000
 4386,-0.00002355,-0.00000488,-0.00000630,0.00000351,-0.00000399,-0.000
 00432,-0.00000442,0.00000413,-0.00000689,-0.00000560,-0.00000034,-0.00
 000410,-0.00000143,0.00000003,0.00000201,0.00000010,-0.00000431,-0.000
 01035,-0.00002364,0.00000590,-0.00000699,0.00001992,-0.00000107,0.0000
 0207,0.00000171,-0.00000689,-0.00000661,0.00000413,-0.00000915,-0.0000
 0216,0.00000660,-0.00000462,-0.00000210,0.00000051,-0.00000556,0.00000
 264,-0.00000242,0.00000465,-0.00000017,-0.00000010,-0.00001404,0.00000
 340,0.00000058,0.00000106,-0.00000094,-0.00000163,-0.00000126,-0.00000
 108,-0.00001544,0.00001502,0.00000231,0.00001266,-0.00000017,0.0000023
 4,0.00000012,0.00000074,-0.00000159,-0.00000203,-0.00000150,0.00000136
 ,0.00000329,0.00000284,0.00000123,-0.00000329,0.00000134,-0.00000251,0
 .00000425,-0.00000480,-0.00000015,-0.00000455,-0.00000346,0.00000208,0
 .00000130,0.00000215,-0.00000126,-0.00000006,0.00000247,0.00002510,0.0
 0001548,0.00000620,0.00002520,-0.00003003,-0.00000365\\\@


 BLESSED ARE THOSE WHO NOUGHT EXPECT,
 FOR THEY SHALL NOT BE DISAPPOINTED..  WALCOT - ODE TO PITT
 Job cpu time:       1 days 19 hours 24 minutes  9.6 seconds.
 Elapsed time:       0 days  2 hours 10 minutes 19.6 seconds.
 File lengths (MBytes):  RWF=   4186 Int=      0 D2E=      0 Chk=     41 Scr=      1
 Normal termination of Gaussian 16 at Wed May 27 20:29:03 2020.
