 Entering Gaussian System, Link 0=g16
 Initial command:
 /cluster/chemistry/gaussian/g16/l1.exe "/scratch/js1212.13850/scratch/Gau-25002.inp" -scrdir="/scratch/js1212.13850/scratch/"
 Entering Link 1 = /cluster/chemistry/gaussian/g16/l1.exe PID=     25003.
  
 Copyright (c) 1988,1990,1992,1993,1995,1998,2003,2009,2016,
            Gaussian, Inc.  All Rights Reserved.
  
 This is part of the Gaussian(R) 16 program.  It is based on
 the Gaussian(R) 09 system (copyright 2009, Gaussian, Inc.),
 the Gaussian(R) 03 system (copyright 2003, Gaussian, Inc.),
 the Gaussian(R) 98 system (copyright 1998, Gaussian, Inc.),
 the Gaussian(R) 94 system (copyright 1995, Gaussian, Inc.),
 the Gaussian 92(TM) system (copyright 1992, Gaussian, Inc.),
 the Gaussian 90(TM) system (copyright 1990, Gaussian, Inc.),
 the Gaussian 88(TM) system (copyright 1988, Gaussian, Inc.),
 the Gaussian 86(TM) system (copyright 1986, Carnegie Mellon
 University), and the Gaussian 82(TM) system (copyright 1983,
 Carnegie Mellon University). Gaussian is a federally registered
 trademark of Gaussian, Inc.
  
 This software contains proprietary and confidential information,
 including trade secrets, belonging to Gaussian, Inc.
  
 This software is provided under written license and may be
 used, copied, transmitted, or stored only in accord with that
 written license.
  
 The following legend is applicable only to US Government
 contracts under FAR:
  
                    RESTRICTED RIGHTS LEGEND
  
 Use, reproduction and disclosure by the US Government is
 subject to restrictions as set forth in subparagraphs (a)
 and (c) of the Commercial Computer Software - Restricted
 Rights clause in FAR 52.227-19.
  
 Gaussian, Inc.
 340 Quinnipiac St., Bldg. 40, Wallingford CT 06492
  
  
 ---------------------------------------------------------------
 Warning -- This program may not be used in any manner that
 competes with the business of Gaussian, Inc. or will provide
 assistance to any competitor of Gaussian, Inc.  The licensee
 of this program is prohibited from giving any competitor of
 Gaussian, Inc. access to this program.  By using this program,
 the user acknowledges that Gaussian, Inc. is engaged in the
 business of creating and licensing software in the field of
 computational chemistry and represents and warrants to the
 licensee that it is not a competitor of Gaussian, Inc. and that
 it will not use this program in any manner prohibited above.
 ---------------------------------------------------------------
  

 Cite this work as:
 Gaussian 16, Revision A.03,
 M. J. Frisch, G. W. Trucks, H. B. Schlegel, G. E. Scuseria, 
 M. A. Robb, J. R. Cheeseman, G. Scalmani, V. Barone, 
 G. A. Petersson, H. Nakatsuji, X. Li, M. Caricato, A. V. Marenich, 
 J. Bloino, B. G. Janesko, R. Gomperts, B. Mennucci, H. P. Hratchian, 
 J. V. Ortiz, A. F. Izmaylov, J. L. Sonnenberg, D. Williams-Young, 
 F. Ding, F. Lipparini, F. Egidi, J. Goings, B. Peng, A. Petrone, 
 T. Henderson, D. Ranasinghe, V. G. Zakrzewski, J. Gao, N. Rega, 
 G. Zheng, W. Liang, M. Hada, M. Ehara, K. Toyota, R. Fukuda, 
 J. Hasegawa, M. Ishida, T. Nakajima, Y. Honda, O. Kitao, H. Nakai, 
 T. Vreven, K. Throssell, J. A. Montgomery, Jr., J. E. Peralta, 
 F. Ogliaro, M. J. Bearpark, J. J. Heyd, E. N. Brothers, K. N. Kudin, 
 V. N. Staroverov, T. A. Keith, R. Kobayashi, J. Normand, 
 K. Raghavachari, A. P. Rendell, J. C. Burant, S. S. Iyengar, 
 J. Tomasi, M. Cossi, J. M. Millam, M. Klene, C. Adamo, R. Cammi, 
 J. W. Ochterski, R. L. Martin, K. Morokuma, O. Farkas, 
 J. B. Foresman, and D. J. Fox, Gaussian, Inc., Wallingford CT, 2016.
 
 ******************************************
 Gaussian 16:  ES64L-G16RevA.03 25-Dec-2016
                 9-Nov-2018 
 ******************************************
 %rwf=/scratch/js1212.13850/2-Full-Trans-A-GPOF.rwf
 %nosave
 %nprocshared=16
 Will use up to   16 processors via shared memory.
 %mem=3000MB
 %chk=/scratch/js1212.13850/2-Full-Trans-A-GPOF.chk
 ---------------------------------------------------
 # opt freq genecp pbe1pbe EmpiricalDispersion=GD3BJ
 ---------------------------------------------------
 1/18=20,19=15,26=3,38=1/1,3;
 2/9=110,12=2,17=6,18=5,40=1/2;
 3/5=7,11=2,16=1,17=8,25=1,30=1,71=1,74=-13,124=41/1,2,3;
 4//1;
 5/5=2,38=5/2;
 6/7=2,8=2,9=2,10=2,28=1/1;
 7//1,2,3,16;
 1/18=20,19=15,26=3/3(2);
 2/9=110/2;
 99//99;
 2/9=110/2;
 3/5=7,6=1,11=2,16=1,17=8,25=1,30=1,71=1,74=-13,82=7,124=41/1,2,3;
 4/5=5,16=3,69=1/1;
 5/5=2,38=5/2;
 7//1,2,3,16;
 1/18=20,19=15,26=3/3(-5);
 2/9=110/2;
 6/7=2,8=2,9=2,10=2,19=2,28=1/1;
 99/9=1/99;
 -------------------
 Title Card Required
 -------------------
 Symbolic Z-matrix:
 Charge =  0 Multiplicity = 1
 N                    -0.7979    1.4328   -0.03621 
 C                    -2.01825   1.85475   0.32099 
 C                     0.09667   2.2643   -0.59472 
 C                    -2.40429   3.17863   0.14256 
 C                    -1.48202   4.06775  -0.4062 
 C                    -0.22135   3.61143  -0.77717 
 C                    -2.85398   0.79721   0.97678 
 H                    -3.40367   3.50512   0.43267 
 H                    -1.75016   5.11594  -0.55306 
 H                     0.51069   4.28707  -1.22126 
 C                     1.39021   1.64668  -1.02903 
 N                    -2.6975   -0.52283   0.32907 
 H                    -3.91213   1.10732   1.03139 
 H                    -2.48444   0.6815    2.00924 
 H                     1.21016   1.25831  -2.04804 
 P                     1.74046   0.07506  -0.06998 
 H                     2.20929   2.37999  -1.05414 
 Ru                   -0.40672  -0.62914   0.11752 
 C                    -3.34421  -0.54578  -1.00679 
 C                     2.9976   -0.83497  -1.18616 
 C                    -3.26574  -1.53137   1.2563 
 C                     2.59219   0.6448    1.54475 
 C                     2.20005  -1.54249  -2.28905 
 C                     3.75193  -1.90559  -0.39121 
 C                     3.99226   0.1228   -1.85195 
 C                     1.69596   1.72012   2.17108 
 C                     3.98838   1.23773   1.34877 
 C                     2.64821  -0.54059   2.51476 
 H                    -0.39193  -0.56531   1.74039 
 H                    -2.75193   0.12054  -1.65061 
 C                    -4.83338  -0.23462  -1.05417 
 H                    -3.15779  -1.54624  -1.41813 
 H                    -2.62535  -1.508     2.15004 
 C                    -3.32524  -2.94076   0.70559 
 H                    -4.28108  -1.21396   1.5677 
 C                     0.0149   -2.39477   0.31599 
 O                    -0.63023  -0.34692  -2.01584 
 H                    -0.68233  -1.21504  -2.43148 
 H                    -2.35215  -3.2522    0.30213 
 H                    -4.08475  -3.05745  -0.08159 
 H                    -3.58914  -3.63112   1.52065 
 H                    -5.18055  -0.35402  -2.09191 
 H                    -5.06774   0.79996  -0.75989 
 H                    -5.43779  -0.91113  -0.42925 
 H                     2.90846  -1.92712  -3.04246 
 H                     1.46924  -0.87663  -2.76994 
 H                     1.63741  -2.39496  -1.88325 
 H                     4.33293  -2.52088  -1.09898 
 H                     3.0628   -2.57994   0.13931 
 H                     4.46208  -1.48534   0.3348 
 H                     4.7047   -0.46943  -2.45127 
 H                     4.57849   0.71383  -1.13648 
 H                     3.49096   0.81398  -2.54517 
 H                     4.72277   0.4966    1.00492 
 H                     4.34944   1.62732   2.31599 
 H                     3.98991   2.08066   0.64011 
 H                     3.32197  -1.33726   2.17362 
 H                     1.64587  -0.97069   2.6566 
 H                     3.01782  -0.18818   3.49281 
 H                     2.09562   1.97565   3.16695 
 H                     0.66661   1.35329   2.29496 
 H                     1.67628   2.64804   1.57878 
 O                     0.33359  -3.50626   0.47531 
 

 GradGradGradGradGradGradGradGradGradGradGradGradGradGradGradGradGradGrad
 Berny optimization.
 Initialization pass.
                           ----------------------------
                           !    Initial Parameters    !
                           ! (Angstroms and Degrees)  !
 --------------------------                            --------------------------
 ! Name  Definition              Value          Derivative Info.                !
 --------------------------------------------------------------------------------
 ! R1    R(1,2)                  1.3397         estimate D2E/DX2                !
 ! R2    R(1,3)                  1.343          estimate D2E/DX2                !
 ! R3    R(1,18)                 2.1043         estimate D2E/DX2                !
 ! R4    R(2,4)                  1.3905         estimate D2E/DX2                !
 ! R5    R(2,7)                  1.499          estimate D2E/DX2                !
 ! R6    R(3,6)                  1.3961         estimate D2E/DX2                !
 ! R7    R(3,11)                 1.4978         estimate D2E/DX2                !
 ! R8    R(4,5)                  1.3936         estimate D2E/DX2                !
 ! R9    R(4,8)                  1.0907         estimate D2E/DX2                !
 ! R10   R(5,6)                  1.3911         estimate D2E/DX2                !
 ! R11   R(5,9)                  1.0919         estimate D2E/DX2                !
 ! R12   R(6,10)                 1.0907         estimate D2E/DX2                !
 ! R13   R(7,12)                 1.4787         estimate D2E/DX2                !
 ! R14   R(7,13)                 1.104          estimate D2E/DX2                !
 ! R15   R(7,14)                 1.1027         estimate D2E/DX2                !
 ! R16   R(11,15)                1.1053         estimate D2E/DX2                !
 ! R17   R(11,16)                1.8742         estimate D2E/DX2                !
 ! R18   R(11,17)                1.0997         estimate D2E/DX2                !
 ! R19   R(12,19)                1.4843         estimate D2E/DX2                !
 ! R20   R(12,21)                1.4832         estimate D2E/DX2                !
 ! R21   R(16,18)                2.2675         estimate D2E/DX2                !
 ! R22   R(16,20)                1.9117         estimate D2E/DX2                !
 ! R23   R(16,22)                1.9124         estimate D2E/DX2                !
 ! R24   R(18,29)                1.6242         estimate D2E/DX2                !
 ! R25   R(18,36)                1.8261         estimate D2E/DX2                !
 ! R26   R(18,37)                2.1635         estimate D2E/DX2                !
 ! R27   R(19,30)                1.0997         estimate D2E/DX2                !
 ! R28   R(19,31)                1.5221         estimate D2E/DX2                !
 ! R29   R(19,32)                1.0977         estimate D2E/DX2                !
 ! R30   R(20,23)                1.534          estimate D2E/DX2                !
 ! R31   R(20,24)                1.5321         estimate D2E/DX2                !
 ! R32   R(20,25)                1.533          estimate D2E/DX2                !
 ! R33   R(21,33)                1.0997         estimate D2E/DX2                !
 ! R34   R(21,34)                1.5143         estimate D2E/DX2                !
 ! R35   R(21,35)                1.1084         estimate D2E/DX2                !
 ! R36   R(22,26)                1.5336         estimate D2E/DX2                !
 ! R37   R(22,27)                1.5295         estimate D2E/DX2                !
 ! R38   R(22,28)                1.5327         estimate D2E/DX2                !
 ! R39   R(23,45)                1.1034         estimate D2E/DX2                !
 ! R40   R(23,46)                1.0994         estimate D2E/DX2                !
 ! R41   R(23,47)                1.0991         estimate D2E/DX2                !
 ! R42   R(24,48)                1.1032         estimate D2E/DX2                !
 ! R43   R(24,49)                1.1005         estimate D2E/DX2                !
 ! R44   R(24,50)                1.0991         estimate D2E/DX2                !
 ! R45   R(25,51)                1.1034         estimate D2E/DX2                !
 ! R46   R(25,52)                1.0977         estimate D2E/DX2                !
 ! R47   R(25,53)                1.0998         estimate D2E/DX2                !
 ! R48   R(26,60)                1.1031         estimate D2E/DX2                !
 ! R49   R(26,61)                1.0998         estimate D2E/DX2                !
 ! R50   R(26,62)                1.101          estimate D2E/DX2                !
 ! R51   R(27,54)                1.0986         estimate D2E/DX2                !
 ! R52   R(27,55)                1.1035         estimate D2E/DX2                !
 ! R53   R(27,56)                1.1012         estimate D2E/DX2                !
 ! R54   R(28,57)                1.0977         estimate D2E/DX2                !
 ! R55   R(28,58)                1.0999         estimate D2E/DX2                !
 ! R56   R(28,59)                1.1034         estimate D2E/DX2                !
 ! R57   R(31,42)                1.1008         estimate D2E/DX2                !
 ! R58   R(31,43)                1.1009         estimate D2E/DX2                !
 ! R59   R(31,44)                1.1016         estimate D2E/DX2                !
 ! R60   R(34,39)                1.0985         estimate D2E/DX2                !
 ! R61   R(34,40)                1.1001         estimate D2E/DX2                !
 ! R62   R(34,41)                1.1003         estimate D2E/DX2                !
 ! R63   R(36,63)                1.1672         estimate D2E/DX2                !
 ! R64   R(37,38)                0.9639         estimate D2E/DX2                !
 ! A1    A(2,1,3)              121.509          estimate D2E/DX2                !
 ! A2    A(2,1,18)             117.2874         estimate D2E/DX2                !
 ! A3    A(3,1,18)             120.8792         estimate D2E/DX2                !
 ! A4    A(1,2,4)              121.2338         estimate D2E/DX2                !
 ! A5    A(1,2,7)              113.722          estimate D2E/DX2                !
 ! A6    A(4,2,7)              124.9638         estimate D2E/DX2                !
 ! A7    A(1,3,6)              120.0022         estimate D2E/DX2                !
 ! A8    A(1,3,11)             116.1397         estimate D2E/DX2                !
 ! A9    A(6,3,11)             123.8291         estimate D2E/DX2                !
 ! A10   A(2,4,5)              118.3082         estimate D2E/DX2                !
 ! A11   A(2,4,8)              120.3491         estimate D2E/DX2                !
 ! A12   A(5,4,8)              121.3419         estimate D2E/DX2                !
 ! A13   A(4,5,6)              119.6996         estimate D2E/DX2                !
 ! A14   A(4,5,9)              120.1925         estimate D2E/DX2                !
 ! A15   A(6,5,9)              120.1056         estimate D2E/DX2                !
 ! A16   A(3,6,5)              119.2156         estimate D2E/DX2                !
 ! A17   A(3,6,10)             119.8709         estimate D2E/DX2                !
 ! A18   A(5,6,10)             120.9058         estimate D2E/DX2                !
 ! A19   A(2,7,12)             112.283          estimate D2E/DX2                !
 ! A20   A(2,7,13)             110.9679         estimate D2E/DX2                !
 ! A21   A(2,7,14)             107.2666         estimate D2E/DX2                !
 ! A22   A(12,7,13)            111.9534         estimate D2E/DX2                !
 ! A23   A(12,7,14)            106.3194         estimate D2E/DX2                !
 ! A24   A(13,7,14)            107.7201         estimate D2E/DX2                !
 ! A25   A(3,11,15)            105.7562         estimate D2E/DX2                !
 ! A26   A(3,11,16)            111.0272         estimate D2E/DX2                !
 ! A27   A(3,11,17)            112.0193         estimate D2E/DX2                !
 ! A28   A(15,11,16)           101.9801         estimate D2E/DX2                !
 ! A29   A(15,11,17)           109.5482         estimate D2E/DX2                !
 ! A30   A(16,11,17)           115.5747         estimate D2E/DX2                !
 ! A31   A(7,12,19)            111.2175         estimate D2E/DX2                !
 ! A32   A(7,12,21)            107.0165         estimate D2E/DX2                !
 ! A33   A(19,12,21)           112.6557         estimate D2E/DX2                !
 ! A34   A(11,16,18)            97.2257         estimate D2E/DX2                !
 ! A35   A(11,16,20)           102.9036         estimate D2E/DX2                !
 ! A36   A(11,16,22)           105.3951         estimate D2E/DX2                !
 ! A37   A(18,16,20)           121.5452         estimate D2E/DX2                !
 ! A38   A(18,16,22)           116.3875         estimate D2E/DX2                !
 ! A39   A(20,16,22)           109.9945         estimate D2E/DX2                !
 ! A40   A(1,18,16)             82.2808         estimate D2E/DX2                !
 ! A41   A(1,18,29)             92.0734         estimate D2E/DX2                !
 ! A42   A(1,18,37)             77.3464         estimate D2E/DX2                !
 ! A43   A(16,18,29)            93.5429         estimate D2E/DX2                !
 ! A44   A(16,18,36)            95.2            estimate D2E/DX2                !
 ! A45   A(16,18,37)            88.612          estimate D2E/DX2                !
 ! A46   A(29,18,36)            85.8308         estimate D2E/DX2                !
 ! A47   A(36,18,37)           104.901          estimate D2E/DX2                !
 ! A48   A(12,19,30)           106.4316         estimate D2E/DX2                !
 ! A49   A(12,19,31)           116.8158         estimate D2E/DX2                !
 ! A50   A(12,19,32)           106.1022         estimate D2E/DX2                !
 ! A51   A(30,19,31)           112.635          estimate D2E/DX2                !
 ! A52   A(30,19,32)           103.969          estimate D2E/DX2                !
 ! A53   A(31,19,32)           109.9272         estimate D2E/DX2                !
 ! A54   A(16,20,23)           107.3048         estimate D2E/DX2                !
 ! A55   A(16,20,24)           110.701          estimate D2E/DX2                !
 ! A56   A(16,20,25)           112.5111         estimate D2E/DX2                !
 ! A57   A(23,20,24)           107.8629         estimate D2E/DX2                !
 ! A58   A(23,20,25)           108.2561         estimate D2E/DX2                !
 ! A59   A(24,20,25)           110.029          estimate D2E/DX2                !
 ! A60   A(12,21,33)           105.695          estimate D2E/DX2                !
 ! A61   A(12,21,34)           114.8704         estimate D2E/DX2                !
 ! A62   A(12,21,35)           109.3815         estimate D2E/DX2                !
 ! A63   A(33,21,34)           109.7675         estimate D2E/DX2                !
 ! A64   A(33,21,35)           107.3979         estimate D2E/DX2                !
 ! A65   A(34,21,35)           109.4321         estimate D2E/DX2                !
 ! A66   A(16,22,26)           107.065          estimate D2E/DX2                !
 ! A67   A(16,22,27)           114.4472         estimate D2E/DX2                !
 ! A68   A(16,22,28)           108.6767         estimate D2E/DX2                !
 ! A69   A(26,22,27)           108.2994         estimate D2E/DX2                !
 ! A70   A(26,22,28)           107.7691         estimate D2E/DX2                !
 ! A71   A(27,22,28)           110.3374         estimate D2E/DX2                !
 ! A72   A(20,23,45)           108.5366         estimate D2E/DX2                !
 ! A73   A(20,23,46)           112.3801         estimate D2E/DX2                !
 ! A74   A(20,23,47)           111.0051         estimate D2E/DX2                !
 ! A75   A(45,23,46)           109.8306         estimate D2E/DX2                !
 ! A76   A(45,23,47)           108.0841         estimate D2E/DX2                !
 ! A77   A(46,23,47)           106.9161         estimate D2E/DX2                !
 ! A78   A(20,24,48)           108.4308         estimate D2E/DX2                !
 ! A79   A(20,24,49)           111.7174         estimate D2E/DX2                !
 ! A80   A(20,24,50)           113.1834         estimate D2E/DX2                !
 ! A81   A(48,24,49)           107.2956         estimate D2E/DX2                !
 ! A82   A(48,24,50)           107.2628         estimate D2E/DX2                !
 ! A83   A(49,24,50)           108.691          estimate D2E/DX2                !
 ! A84   A(20,25,51)           108.6332         estimate D2E/DX2                !
 ! A85   A(20,25,52)           113.5688         estimate D2E/DX2                !
 ! A86   A(20,25,53)           111.7559         estimate D2E/DX2                !
 ! A87   A(51,25,52)           107.3494         estimate D2E/DX2                !
 ! A88   A(51,25,53)           106.8135         estimate D2E/DX2                !
 ! A89   A(52,25,53)           108.4143         estimate D2E/DX2                !
 ! A90   A(22,26,60)           108.6274         estimate D2E/DX2                !
 ! A91   A(22,26,61)           111.0457         estimate D2E/DX2                !
 ! A92   A(22,26,62)           112.4382         estimate D2E/DX2                !
 ! A93   A(60,26,61)           108.3421         estimate D2E/DX2                !
 ! A94   A(60,26,62)           107.2725         estimate D2E/DX2                !
 ! A95   A(61,26,62)           108.9644         estimate D2E/DX2                !
 ! A96   A(22,27,54)           112.8807         estimate D2E/DX2                !
 ! A97   A(22,27,55)           108.8591         estimate D2E/DX2                !
 ! A98   A(22,27,56)           112.3621         estimate D2E/DX2                !
 ! A99   A(54,27,55)           107.0857         estimate D2E/DX2                !
 ! A100  A(54,27,56)           108.3031         estimate D2E/DX2                !
 ! A101  A(55,27,56)           107.0588         estimate D2E/DX2                !
 ! A102  A(22,28,57)           112.7705         estimate D2E/DX2                !
 ! A103  A(22,28,58)           110.5319         estimate D2E/DX2                !
 ! A104  A(22,28,59)           109.0396         estimate D2E/DX2                !
 ! A105  A(57,28,58)           108.3981         estimate D2E/DX2                !
 ! A106  A(57,28,59)           107.558          estimate D2E/DX2                !
 ! A107  A(58,28,59)           108.4126         estimate D2E/DX2                !
 ! A108  A(19,31,42)           108.4057         estimate D2E/DX2                !
 ! A109  A(19,31,43)           113.0847         estimate D2E/DX2                !
 ! A110  A(19,31,44)           113.1791         estimate D2E/DX2                !
 ! A111  A(42,31,43)           106.6671         estimate D2E/DX2                !
 ! A112  A(42,31,44)           107.1665         estimate D2E/DX2                !
 ! A113  A(43,31,44)           107.9807         estimate D2E/DX2                !
 ! A114  A(21,34,39)           111.262          estimate D2E/DX2                !
 ! A115  A(21,34,40)           112.7111         estimate D2E/DX2                !
 ! A116  A(21,34,41)           108.9048         estimate D2E/DX2                !
 ! A117  A(39,34,40)           108.5852         estimate D2E/DX2                !
 ! A118  A(39,34,41)           107.8581         estimate D2E/DX2                !
 ! A119  A(40,34,41)           107.3337         estimate D2E/DX2                !
 ! A120  A(18,37,38)           108.258          estimate D2E/DX2                !
 ! A121  L(1,18,36,16,-1)      177.4808         estimate D2E/DX2                !
 ! A122  L(29,18,37,1,-1)      169.4198         estimate D2E/DX2                !
 ! A123  L(18,36,63,20,-1)     178.2851         estimate D2E/DX2                !
 ! A124  L(1,18,36,16,-2)      177.7444         estimate D2E/DX2                !
 ! A125  L(29,18,37,1,-2)      183.6042         estimate D2E/DX2                !
 ! A126  L(18,36,63,20,-2)     177.4403         estimate D2E/DX2                !
 ! D1    D(3,1,2,4)             -0.7933         estimate D2E/DX2                !
 ! D2    D(3,1,2,7)           -177.6875         estimate D2E/DX2                !
 ! D3    D(18,1,2,4)          -174.3063         estimate D2E/DX2                !
 ! D4    D(18,1,2,7)             8.7996         estimate D2E/DX2                !
 ! D5    D(2,1,3,6)              1.987          estimate D2E/DX2                !
 ! D6    D(2,1,3,11)          -176.13           estimate D2E/DX2                !
 ! D7    D(18,1,3,6)           175.2686         estimate D2E/DX2                !
 ! D8    D(18,1,3,11)           -2.8484         estimate D2E/DX2                !
 ! D9    D(2,1,18,16)         -164.4376         estimate D2E/DX2                !
 ! D10   D(2,1,18,29)          -71.1416         estimate D2E/DX2                !
 ! D11   D(2,1,18,37)          105.2542         estimate D2E/DX2                !
 ! D12   D(3,1,18,16)           22.0062         estimate D2E/DX2                !
 ! D13   D(3,1,18,29)          115.3022         estimate D2E/DX2                !
 ! D14   D(3,1,18,37)          -68.302          estimate D2E/DX2                !
 ! D15   D(1,2,4,5)             -0.7208         estimate D2E/DX2                !
 ! D16   D(1,2,4,8)            179.6071         estimate D2E/DX2                !
 ! D17   D(7,2,4,5)            175.8091         estimate D2E/DX2                !
 ! D18   D(7,2,4,8)             -3.863          estimate D2E/DX2                !
 ! D19   D(1,2,7,12)           -40.2165         estimate D2E/DX2                !
 ! D20   D(1,2,7,13)          -166.3532         estimate D2E/DX2                !
 ! D21   D(1,2,7,14)            76.2307         estimate D2E/DX2                !
 ! D22   D(4,2,7,12)           143.0243         estimate D2E/DX2                !
 ! D23   D(4,2,7,13)            16.8875         estimate D2E/DX2                !
 ! D24   D(4,2,7,14)          -100.5286         estimate D2E/DX2                !
 ! D25   D(1,3,6,5)             -1.6445         estimate D2E/DX2                !
 ! D26   D(1,3,6,10)           179.351          estimate D2E/DX2                !
 ! D27   D(11,3,6,5)           176.3206         estimate D2E/DX2                !
 ! D28   D(11,3,6,10)           -2.6839         estimate D2E/DX2                !
 ! D29   D(1,3,11,15)           85.8663         estimate D2E/DX2                !
 ! D30   D(1,3,11,16)          -23.9815         estimate D2E/DX2                !
 ! D31   D(1,3,11,17)         -154.8508         estimate D2E/DX2                !
 ! D32   D(6,3,11,15)          -92.1707         estimate D2E/DX2                !
 ! D33   D(6,3,11,16)          157.9816         estimate D2E/DX2                !
 ! D34   D(6,3,11,17)           27.1122         estimate D2E/DX2                !
 ! D35   D(2,4,5,6)              1.0052         estimate D2E/DX2                !
 ! D36   D(2,4,5,9)           -179.553          estimate D2E/DX2                !
 ! D37   D(8,4,5,6)           -179.3261         estimate D2E/DX2                !
 ! D38   D(8,4,5,9)              0.1156         estimate D2E/DX2                !
 ! D39   D(4,5,6,3)              0.1461         estimate D2E/DX2                !
 ! D40   D(4,5,6,10)           179.14           estimate D2E/DX2                !
 ! D41   D(9,5,6,3)           -179.2961         estimate D2E/DX2                !
 ! D42   D(9,5,6,10)            -0.3022         estimate D2E/DX2                !
 ! D43   D(2,7,12,19)          -71.2594         estimate D2E/DX2                !
 ! D44   D(2,7,12,21)          165.3096         estimate D2E/DX2                !
 ! D45   D(13,7,12,19)          54.3416         estimate D2E/DX2                !
 ! D46   D(13,7,12,21)         -69.0895         estimate D2E/DX2                !
 ! D47   D(14,7,12,19)         171.7259         estimate D2E/DX2                !
 ! D48   D(14,7,12,21)          48.2948         estimate D2E/DX2                !
 ! D49   D(3,11,16,18)          34.9638         estimate D2E/DX2                !
 ! D50   D(3,11,16,20)         159.7187         estimate D2E/DX2                !
 ! D51   D(3,11,16,22)         -85.0086         estimate D2E/DX2                !
 ! D52   D(15,11,16,18)        -77.3057         estimate D2E/DX2                !
 ! D53   D(15,11,16,20)         47.4492         estimate D2E/DX2                !
 ! D54   D(15,11,16,22)        162.7219         estimate D2E/DX2                !
 ! D55   D(17,11,16,18)        163.9596         estimate D2E/DX2                !
 ! D56   D(17,11,16,20)        -71.2854         estimate D2E/DX2                !
 ! D57   D(17,11,16,22)         43.9873         estimate D2E/DX2                !
 ! D58   D(7,12,19,30)          68.3527         estimate D2E/DX2                !
 ! D59   D(7,12,19,31)         -58.422          estimate D2E/DX2                !
 ! D60   D(7,12,19,32)         178.662          estimate D2E/DX2                !
 ! D61   D(21,12,19,30)       -171.5003         estimate D2E/DX2                !
 ! D62   D(21,12,19,31)         61.725          estimate D2E/DX2                !
 ! D63   D(21,12,19,32)        -61.191          estimate D2E/DX2                !
 ! D64   D(7,12,21,33)         -64.7631         estimate D2E/DX2                !
 ! D65   D(7,12,21,34)         174.0744         estimate D2E/DX2                !
 ! D66   D(7,12,21,35)          50.5837         estimate D2E/DX2                !
 ! D67   D(19,12,21,33)        172.6982         estimate D2E/DX2                !
 ! D68   D(19,12,21,34)         51.5357         estimate D2E/DX2                !
 ! D69   D(19,12,21,35)        -71.9549         estimate D2E/DX2                !
 ! D70   D(11,16,18,1)         -26.8727         estimate D2E/DX2                !
 ! D71   D(11,16,18,29)       -118.488          estimate D2E/DX2                !
 ! D72   D(11,16,18,36)        155.3828         estimate D2E/DX2                !
 ! D73   D(11,16,18,37)         50.5451         estimate D2E/DX2                !
 ! D74   D(20,16,18,1)        -136.8692         estimate D2E/DX2                !
 ! D75   D(20,16,18,29)        131.5156         estimate D2E/DX2                !
 ! D76   D(20,16,18,36)         45.3864         estimate D2E/DX2                !
 ! D77   D(20,16,18,37)        -59.4513         estimate D2E/DX2                !
 ! D78   D(22,16,18,1)          84.3274         estimate D2E/DX2                !
 ! D79   D(22,16,18,29)         -7.2879         estimate D2E/DX2                !
 ! D80   D(22,16,18,36)        -93.417          estimate D2E/DX2                !
 ! D81   D(22,16,18,37)        161.7452         estimate D2E/DX2                !
 ! D82   D(11,16,20,23)        -81.0531         estimate D2E/DX2                !
 ! D83   D(11,16,20,24)        161.4829         estimate D2E/DX2                !
 ! D84   D(11,16,20,25)         37.9136         estimate D2E/DX2                !
 ! D85   D(18,16,20,23)         25.9276         estimate D2E/DX2                !
 ! D86   D(18,16,20,24)        -91.5363         estimate D2E/DX2                !
 ! D87   D(18,16,20,25)        144.8943         estimate D2E/DX2                !
 ! D88   D(22,16,20,23)        167.035          estimate D2E/DX2                !
 ! D89   D(22,16,20,24)         49.571          estimate D2E/DX2                !
 ! D90   D(22,16,20,25)        -73.9983         estimate D2E/DX2                !
 ! D91   D(11,16,22,26)         52.1033         estimate D2E/DX2                !
 ! D92   D(11,16,22,27)        -67.9194         estimate D2E/DX2                !
 ! D93   D(11,16,22,28)        168.2548         estimate D2E/DX2                !
 ! D94   D(18,16,22,26)        -54.291          estimate D2E/DX2                !
 ! D95   D(18,16,22,27)       -174.3137         estimate D2E/DX2                !
 ! D96   D(18,16,22,28)         61.8605         estimate D2E/DX2                !
 ! D97   D(20,16,22,26)        162.387          estimate D2E/DX2                !
 ! D98   D(20,16,22,27)         42.3643         estimate D2E/DX2                !
 ! D99   D(20,16,22,28)        -81.4615         estimate D2E/DX2                !
 ! D100  D(1,18,37,38)        -168.9998         estimate D2E/DX2                !
 ! D101  D(16,18,37,38)        108.6006         estimate D2E/DX2                !
 ! D102  D(36,18,37,38)         13.5884         estimate D2E/DX2                !
 ! D103  D(12,19,31,42)       -176.3448         estimate D2E/DX2                !
 ! D104  D(12,19,31,43)         65.5939         estimate D2E/DX2                !
 ! D105  D(12,19,31,44)        -57.6035         estimate D2E/DX2                !
 ! D106  D(30,19,31,42)         60.0009         estimate D2E/DX2                !
 ! D107  D(30,19,31,43)        -58.0604         estimate D2E/DX2                !
 ! D108  D(30,19,31,44)        178.7422         estimate D2E/DX2                !
 ! D109  D(32,19,31,42)        -55.4264         estimate D2E/DX2                !
 ! D110  D(32,19,31,43)       -173.4877         estimate D2E/DX2                !
 ! D111  D(32,19,31,44)         63.3149         estimate D2E/DX2                !
 ! D112  D(16,20,23,45)        170.313          estimate D2E/DX2                !
 ! D113  D(16,20,23,46)         48.6437         estimate D2E/DX2                !
 ! D114  D(16,20,23,47)        -71.0376         estimate D2E/DX2                !
 ! D115  D(24,20,23,45)        -70.3852         estimate D2E/DX2                !
 ! D116  D(24,20,23,46)        167.9455         estimate D2E/DX2                !
 ! D117  D(24,20,23,47)         48.2642         estimate D2E/DX2                !
 ! D118  D(25,20,23,45)         48.642          estimate D2E/DX2                !
 ! D119  D(25,20,23,46)        -73.0273         estimate D2E/DX2                !
 ! D120  D(25,20,23,47)        167.2914         estimate D2E/DX2                !
 ! D121  D(16,20,24,48)        170.2603         estimate D2E/DX2                !
 ! D122  D(16,20,24,49)         52.2225         estimate D2E/DX2                !
 ! D123  D(16,20,24,50)        -70.8585         estimate D2E/DX2                !
 ! D124  D(23,20,24,48)         53.1391         estimate D2E/DX2                !
 ! D125  D(23,20,24,49)        -64.8987         estimate D2E/DX2                !
 ! D126  D(23,20,24,50)        172.0203         estimate D2E/DX2                !
 ! D127  D(25,20,24,48)        -64.7527         estimate D2E/DX2                !
 ! D128  D(25,20,24,49)        177.2096         estimate D2E/DX2                !
 ! D129  D(25,20,24,50)         54.1285         estimate D2E/DX2                !
 ! D130  D(16,20,25,51)        178.1576         estimate D2E/DX2                !
 ! D131  D(16,20,25,52)         58.789          estimate D2E/DX2                !
 ! D132  D(16,20,25,53)        -64.2466         estimate D2E/DX2                !
 ! D133  D(23,20,25,51)        -63.4332         estimate D2E/DX2                !
 ! D134  D(23,20,25,52)        177.1982         estimate D2E/DX2                !
 ! D135  D(23,20,25,53)         54.1626         estimate D2E/DX2                !
 ! D136  D(24,20,25,51)         54.215          estimate D2E/DX2                !
 ! D137  D(24,20,25,52)        -65.1535         estimate D2E/DX2                !
 ! D138  D(24,20,25,53)        171.8109         estimate D2E/DX2                !
 ! D139  D(12,21,34,39)         51.293          estimate D2E/DX2                !
 ! D140  D(12,21,34,40)        -70.9559         estimate D2E/DX2                !
 ! D141  D(12,21,34,41)        170.0492         estimate D2E/DX2                !
 ! D142  D(33,21,34,39)        -67.6167         estimate D2E/DX2                !
 ! D143  D(33,21,34,40)        170.1343         estimate D2E/DX2                !
 ! D144  D(33,21,34,41)         51.1395         estimate D2E/DX2                !
 ! D145  D(35,21,34,39)        174.7568         estimate D2E/DX2                !
 ! D146  D(35,21,34,40)         52.5079         estimate D2E/DX2                !
 ! D147  D(35,21,34,41)        -66.487          estimate D2E/DX2                !
 ! D148  D(16,22,26,60)        172.8818         estimate D2E/DX2                !
 ! D149  D(16,22,26,61)         53.8353         estimate D2E/DX2                !
 ! D150  D(16,22,26,62)        -68.5511         estimate D2E/DX2                !
 ! D151  D(27,22,26,60)        -63.2358         estimate D2E/DX2                !
 ! D152  D(27,22,26,61)        177.7177         estimate D2E/DX2                !
 ! D153  D(27,22,26,62)         55.3313         estimate D2E/DX2                !
 ! D154  D(28,22,26,60)         56.1297         estimate D2E/DX2                !
 ! D155  D(28,22,26,61)        -62.9168         estimate D2E/DX2                !
 ! D156  D(28,22,26,62)        174.6968         estimate D2E/DX2                !
 ! D157  D(16,22,27,54)        -66.9455         estimate D2E/DX2                !
 ! D158  D(16,22,27,55)        174.2947         estimate D2E/DX2                !
 ! D159  D(16,22,27,56)         55.888          estimate D2E/DX2                !
 ! D160  D(26,22,27,54)        173.7224         estimate D2E/DX2                !
 ! D161  D(26,22,27,55)         54.9626         estimate D2E/DX2                !
 ! D162  D(26,22,27,56)        -63.4441         estimate D2E/DX2                !
 ! D163  D(28,22,27,54)         55.9873         estimate D2E/DX2                !
 ! D164  D(28,22,27,55)        -62.7724         estimate D2E/DX2                !
 ! D165  D(28,22,27,56)        178.8209         estimate D2E/DX2                !
 ! D166  D(16,22,28,57)         67.8608         estimate D2E/DX2                !
 ! D167  D(16,22,28,58)        -53.6541         estimate D2E/DX2                !
 ! D168  D(16,22,28,59)       -172.7354         estimate D2E/DX2                !
 ! D169  D(26,22,28,57)       -176.4421         estimate D2E/DX2                !
 ! D170  D(26,22,28,58)         62.043          estimate D2E/DX2                !
 ! D171  D(26,22,28,59)        -57.0383         estimate D2E/DX2                !
 ! D172  D(27,22,28,57)        -58.3809         estimate D2E/DX2                !
 ! D173  D(27,22,28,58)       -179.8958         estimate D2E/DX2                !
 ! D174  D(27,22,28,59)         61.0229         estimate D2E/DX2                !
 --------------------------------------------------------------------------------
 Trust Radius=3.00D-01 FncErr=1.00D-07 GrdErr=1.00D-06 EigMax=2.50D+02 EigMin=1.00D-04
 Number of steps in this run=    374 maximum allowed number of steps=    378.
 GradGradGradGradGradGradGradGradGradGradGradGradGradGradGradGradGradGrad

 Stoichiometry    C20H37N2O2PRu
 Framework group  C1[X(C20H37N2O2PRu)]
 Deg. of freedom   183
 Full point group                 C1      NOp   1
 Largest Abelian subgroup         C1      NOp   1
 Largest concise Abelian subgroup C1      NOp   1
                         Standard orientation:                         
 ---------------------------------------------------------------------
 Center     Atomic      Atomic             Coordinates (Angstroms)
 Number     Number       Type             X           Y           Z
 ---------------------------------------------------------------------
      1          7           0       -0.797901    1.432800   -0.036209
      2          6           0       -2.018251    1.854750    0.320991
      3          6           0        0.096669    2.264301   -0.594719
      4          6           0       -2.404291    3.178630    0.142561
      5          6           0       -1.482022    4.067750   -0.406199
      6          6           0       -0.221351    3.611431   -0.777169
      7          6           0       -2.853981    0.797210    0.976781
      8          1           0       -3.403671    3.505120    0.432671
      9          1           0       -1.750162    5.115940   -0.553059
     10          1           0        0.510688    4.287071   -1.221259
     11          6           0        1.390209    1.646681   -1.029029
     12          7           0       -2.697501   -0.522830    0.329071
     13          1           0       -3.912131    1.107320    1.031391
     14          1           0       -2.484441    0.681500    2.009241
     15          1           0        1.210159    1.258311   -2.048039
     16         15           0        1.740459    0.075061   -0.069979
     17          1           0        2.209289    2.379991   -1.054139
     18         44           0       -0.406721   -0.629140    0.117521
     19          6           0       -3.344211   -0.545780   -1.006789
     20          6           0        2.997599   -0.834969   -1.186159
     21          6           0       -3.265741   -1.531370    1.256301
     22          6           0        2.592189    0.644801    1.544751
     23          6           0        2.200049   -1.542489   -2.289049
     24          6           0        3.751929   -1.905589   -0.391209
     25          6           0        3.992259    0.122801   -1.851949
     26          6           0        1.695959    1.720121    2.171081
     27          6           0        3.988379    1.237731    1.348771
     28          6           0        2.648209   -0.540589    2.514761
     29          1           0       -0.391931   -0.565310    1.740391
     30          1           0       -2.751931    0.120540   -1.650609
     31          6           0       -4.833381   -0.234620   -1.054169
     32          1           0       -3.157791   -1.546240   -1.418129
     33          1           0       -2.625351   -1.508000    2.150041
     34          6           0       -3.325241   -2.940760    0.705591
     35          1           0       -4.281081   -1.213960    1.567701
     36          6           0        0.014899   -2.394769    0.315991
     37          8           0       -0.630231   -0.346920   -2.015839
     38          1           0       -0.682331   -1.215040   -2.431479
     39          1           0       -2.352151   -3.252200    0.302131
     40          1           0       -4.084751   -3.057450   -0.081589
     41          1           0       -3.589141   -3.631120    1.520651
     42          1           0       -5.180551   -0.354020   -2.091909
     43          1           0       -5.067741    0.799960   -0.759889
     44          1           0       -5.437791   -0.911130   -0.429249
     45          1           0        2.908459   -1.927119   -3.042459
     46          1           0        1.469239   -0.876629   -2.769939
     47          1           0        1.637409   -2.394959   -1.883249
     48          1           0        4.332929   -2.520879   -1.098979
     49          1           0        3.062799   -2.579939    0.139311
     50          1           0        4.462079   -1.485339    0.334801
     51          1           0        4.704699   -0.469429   -2.451269
     52          1           0        4.578489    0.713831   -1.136479
     53          1           0        3.490959    0.813981   -2.545169
     54          1           0        4.722769    0.496601    1.004921
     55          1           0        4.349439    1.627321    2.315991
     56          1           0        3.989909    2.080661    0.640111
     57          1           0        3.321969   -1.337259    2.173621
     58          1           0        1.645869   -0.970689    2.656601
     59          1           0        3.017819   -0.188179    3.492811
     60          1           0        2.095619    1.975651    3.166951
     61          1           0        0.666609    1.353291    2.294961
     62          1           0        1.676279    2.648041    1.578781
     63          8           0        0.333589   -3.506259    0.475311
 ---------------------------------------------------------------------
 Rotational constants (GHZ):           0.2537409           0.1634563           0.1297171
 General basis read from cards:  (5D, 7F)
 ======================================================================================================
                                       Pseudopotential Parameters
 ======================================================================================================
  Center     Atomic      Valence      Angular      Power
  Number     Number     Electrons     Momentum     of R      Exponent        Coefficient   SO-Coeffient
 ======================================================================================================
    1          7
                                   No pseudopotential on this center.
    2          6
                                   No pseudopotential on this center.
    3          6
                                   No pseudopotential on this center.
    4          6
                                   No pseudopotential on this center.
    5          6
                                   No pseudopotential on this center.
    6          6
                                   No pseudopotential on this center.
    7          6
                                   No pseudopotential on this center.
    8          1
                                   No pseudopotential on this center.
    9          1
                                   No pseudopotential on this center.
   10          1
                                   No pseudopotential on this center.
   11          6
                                   No pseudopotential on this center.
   12          7
                                   No pseudopotential on this center.
   13          1
                                   No pseudopotential on this center.
   14          1
                                   No pseudopotential on this center.
   15          1
                                   No pseudopotential on this center.
   16         15
                                   No pseudopotential on this center.
   17          1
                                   No pseudopotential on this center.
   18         44           16
                                      G and up 
                                                     2        1.0000000        0.00000000    0.00000000
                                      S - G
                                                     2       11.1052690      209.82297100    0.00000000
                                                     2        5.4147450       30.65472600    0.00000000
                                      P - G
                                                     2        9.7712710      146.33618200    0.00000000
                                                     2        5.0739910       24.12787700    0.00000000
                                      D - G
                                                     2        7.6714230       67.51589700    0.00000000
                                                     2        4.1365650        9.87010400    0.00000000
                                      F - G
                                                     2       11.3600000      -28.34061600    0.00000000
                                                     2        5.6800000       -4.94462900    0.00000000
   19          6
                                   No pseudopotential on this center.
   20          6
                                   No pseudopotential on this center.
   21          6
                                   No pseudopotential on this center.
   22          6
                                   No pseudopotential on this center.
   23          6
                                   No pseudopotential on this center.
   24          6
                                   No pseudopotential on this center.
   25          6
                                   No pseudopotential on this center.
   26          6
                                   No pseudopotential on this center.
   27          6
                                   No pseudopotential on this center.
   28          6
                                   No pseudopotential on this center.
   29          1
                                   No pseudopotential on this center.
   30          1
                                   No pseudopotential on this center.
   31          6
                                   No pseudopotential on this center.
   32          1
                                   No pseudopotential on this center.
   33          1
                                   No pseudopotential on this center.
   34          6
                                   No pseudopotential on this center.
   35          1
                                   No pseudopotential on this center.
   36          6
                                   No pseudopotential on this center.
   37          8
                                   No pseudopotential on this center.
   38          1
                                   No pseudopotential on this center.
   39          1
                                   No pseudopotential on this center.
   40          1
                                   No pseudopotential on this center.
   41          1
                                   No pseudopotential on this center.
   42          1
                                   No pseudopotential on this center.
   43          1
                                   No pseudopotential on this center.
   44          1
                                   No pseudopotential on this center.
   45          1
                                   No pseudopotential on this center.
   46          1
                                   No pseudopotential on this center.
   47          1
                                   No pseudopotential on this center.
   48          1
                                   No pseudopotential on this center.
   49          1
                                   No pseudopotential on this center.
   50          1
                                   No pseudopotential on this center.
   51          1
                                   No pseudopotential on this center.
   52          1
                                   No pseudopotential on this center.
   53          1
                                   No pseudopotential on this center.
   54          1
                                   No pseudopotential on this center.
   55          1
                                   No pseudopotential on this center.
   56          1
                                   No pseudopotential on this center.
   57          1
                                   No pseudopotential on this center.
   58          1
                                   No pseudopotential on this center.
   59          1
                                   No pseudopotential on this center.
   60          1
                                   No pseudopotential on this center.
   61          1
                                   No pseudopotential on this center.
   62          1
                                   No pseudopotential on this center.
   63          8
                                   No pseudopotential on this center.
 ======================================================================================================
 There are   603 symmetry adapted cartesian basis functions of A   symmetry.
 There are   575 symmetry adapted basis functions of A   symmetry.
   575 basis functions,  1187 primitive gaussians,   603 cartesian basis functions
   109 alpha electrons      109 beta electrons
       nuclear repulsion energy      3240.3308822417 Hartrees.
 NAtoms=   63 NActive=   63 NUniq=   63 SFac= 1.00D+00 NAtFMM=   60 NAOKFM=T Big=T
 Integral buffers will be    131072 words long.
 Raffenetti 2 integral format.
 Two-electron integral symmetry is turned on.
 Nuclear repulsion after empirical dispersion term =     3240.2375560669 Hartrees.
 One-electron integrals computed using PRISM.
   1 Symmetry operations used in ECPInt.
 ECPInt:  NShTT=   38503 NPrTT=  265225 LenC2=   35739 LenP2D=  135722.
 LDataN:  DoStor=T MaxTD1= 6 Len=  172
 NBasis=   575 RedAO= T EigKep=  4.42D-04  NBF=   575
 NBsUse=   575 1.00D-06 EigRej= -1.00D+00 NBFU=   575
 Defaulting to unpruned grid for atomic number  44.
 ExpMin= 1.60D-02 ExpMax= 9.48D+04 ExpMxC= 3.24D+03 IAcc=3 IRadAn=         5 AccDes= 0.00D+00
 Harris functional with IExCor= 1009 and IRadAn=       5 diagonalized for initial guess.
 HarFok:  IExCor= 1009 AccDes= 0.00D+00 IRadAn=         5 IDoV= 1 UseB2=F ITyADJ=14
 ICtDFT=  3500011 ScaDFX=  1.000000  1.000000  1.000000  1.000000
 Defaulting to unpruned grid for atomic number  44.
 FoFCou: FMM=F IPFlag=           0 FMFlag=      100000 FMFlg1=        2001
         NFxFlg=           0 DoJE=T BraDBF=F KetDBF=T FulRan=T
         wScrn=  0.000000 ICntrl=       500 IOpCl=  0 I1Cent=   200000004 NGrid=           0
         NMat0=    1 NMatS0=      1 NMatT0=    0 NMatD0=    1 NMtDS0=    0 NMtDT0=    0
 Petite list used in FoFCou.
 Requested convergence on RMS density matrix=1.00D-08 within 128 cycles.
 Requested convergence on MAX density matrix=1.00D-06.
 Requested convergence on             energy=1.00D-06.
 No special actions if energy rises.
 Defaulting to unpruned grid for atomic number  44.
 Defaulting to unpruned grid for atomic number  44.
 Defaulting to unpruned grid for atomic number  44.
 Defaulting to unpruned grid for atomic number  44.
 Defaulting to unpruned grid for atomic number  44.
 Defaulting to unpruned grid for atomic number  44.
 Defaulting to unpruned grid for atomic number  44.
 Defaulting to unpruned grid for atomic number  44.
 Defaulting to unpruned grid for atomic number  44.
 Defaulting to unpruned grid for atomic number  44.
 Defaulting to unpruned grid for atomic number  44.
 Defaulting to unpruned grid for atomic number  44.
 Defaulting to unpruned grid for atomic number  44.
 Defaulting to unpruned grid for atomic number  44.
 Defaulting to unpruned grid for atomic number  44.
 Defaulting to unpruned grid for atomic number  44.
 EnCoef did     1 forward-backward iterations
 SCF Done:  E(RPBE1PBE) =  -1479.49559855     A.U. after   17 cycles
            NFock= 17  Conv=0.45D-08     -V/T= 2.0490

 **********************************************************************

            Population analysis using the SCF density.

 **********************************************************************

 Orbital symmetries:
       Occupied  (A) (A) (A) (A) (A) (A) (A) (A) (A) (A) (A) (A)
                 (A) (A) (A) (A) (A) (A) (A) (A) (A) (A) (A) (A)
                 (A) (A) (A) (A) (A) (A) (A) (A) (A) (A) (A) (A)
                 (A) (A) (A) (A) (A) (A) (A) (A) (A) (A) (A) (A)
                 (A) (A) (A) (A) (A) (A) (A) (A) (A) (A) (A) (A)
                 (A) (A) (A) (A) (A) (A) (A) (A) (A) (A) (A) (A)
                 (A) (A) (A) (A) (A) (A) (A) (A) (A) (A) (A) (A)
                 (A) (A) (A) (A) (A) (A) (A) (A) (A) (A) (A) (A)
                 (A) (A) (A) (A) (A) (A) (A) (A) (A) (A) (A) (A)
                 (A)
       Virtual   (A) (A) (A) (A) (A) (A) (A) (A) (A) (A) (A) (A)
                 (A) (A) (A) (A) (A) (A) (A) (A) (A) (A) (A) (A)
                 (A) (A) (A) (A) (A) (A) (A) (A) (A) (A) (A) (A)
                 (A) (A) (A) (A) (A) (A) (A) (A) (A) (A) (A) (A)
                 (A) (A) (A) (A) (A) (A) (A) (A) (A) (A) (A) (A)
                 (A) (A) (A) (A) (A) (A) (A) (A) (A) (A) (A) (A)
                 (A) (A) (A) (A) (A) (A) (A) (A) (A) (A) (A) (A)
                 (A) (A) (A) (A) (A) (A) (A) (A) (A) (A) (A) (A)
                 (A) (A) (A) (A) (A) (A) (A) (A) (A) (A) (A) (A)
                 (A) (A) (A) (A) (A) (A) (A) (A) (A) (A) (A) (A)
                 (A) (A) (A) (A) (A) (A) (A) (A) (A) (A) (A) (A)
                 (A) (A) (A) (A) (A) (A) (A) (A) (A) (A) (A) (A)
                 (A) (A) (A) (A) (A) (A) (A) (A) (A) (A) (A) (A)
                 (A) (A) (A) (A) (A) (A) (A) (A) (A) (A) (A) (A)
                 (A) (A) (A) (A) (A) (A) (A) (A) (A) (A) (A) (A)
                 (A) (A) (A) (A) (A) (A) (A) (A) (A) (A) (A) (A)
                 (A) (A) (A) (A) (A) (A) (A) (A) (A) (A) (A) (A)
                 (A) (A) (A) (A) (A) (A) (A) (A) (A) (A) (A) (A)
                 (A) (A) (A) (A) (A) (A) (A) (A) (A) (A) (A) (A)
                 (A) (A) (A) (A) (A) (A) (A) (A) (A) (A) (A) (A)
                 (A) (A) (A) (A) (A) (A) (A) (A) (A) (A) (A) (A)
                 (A) (A) (A) (A) (A) (A) (A) (A) (A) (A) (A) (A)
                 (A) (A) (A) (A) (A) (A) (A) (A) (A) (A) (A) (A)
                 (A) (A) (A) (A) (A) (A) (A) (A) (A) (A) (A) (A)
                 (A) (A) (A) (A) (A) (A) (A) (A) (A) (A) (A) (A)
                 (A) (A) (A) (A) (A) (A) (A) (A) (A) (A) (A) (A)
                 (A) (A) (A) (A) (A) (A) (A) (A) (A) (A) (A) (A)
                 (A) (A) (A) (A) (A) (A) (A) (A) (A) (A) (A) (A)
                 (A) (A) (A) (A) (A) (A) (A) (A) (A) (A) (A) (A)
                 (A) (A) (A) (A) (A) (A) (A) (A) (A) (A) (A) (A)
                 (A) (A) (A) (A) (A) (A) (A) (A) (A) (A) (A) (A)
                 (A) (A) (A) (A) (A) (A) (A) (A) (A) (A) (A) (A)
                 (A) (A) (A) (A) (A) (A) (A) (A) (A) (A) (A) (A)
                 (A) (A) (A) (A) (A) (A) (A) (A) (A) (A) (A) (A)
                 (A) (A) (A) (A) (A) (A) (A) (A) (A) (A) (A) (A)
                 (A) (A) (A) (A) (A) (A) (A) (A) (A) (A) (A) (A)
                 (A) (A) (A) (A) (A) (A) (A) (A) (A) (A) (A) (A)
                 (A) (A) (A) (A) (A) (A) (A) (A) (A) (A) (A) (A)
                 (A) (A) (A) (A) (A) (A) (A) (A) (A) (A)
 The electronic state is 1-A.
 Alpha  occ. eigenvalues --  -77.25136 -19.23143 -19.10662 -14.43492 -14.43430
 Alpha  occ. eigenvalues --  -10.30007 -10.29644 -10.29205 -10.27670 -10.27088
 Alpha  occ. eigenvalues --  -10.26047 -10.25990 -10.25879 -10.25498 -10.25470
 Alpha  occ. eigenvalues --  -10.24679 -10.24478 -10.23000 -10.22755 -10.22618
 Alpha  occ. eigenvalues --  -10.22284 -10.22195 -10.21991 -10.21461 -10.20584
 Alpha  occ. eigenvalues --   -6.63004  -4.76670  -4.76569  -4.76306  -3.00845
 Alpha  occ. eigenvalues --   -1.85358  -1.83822  -1.82551  -1.09580  -1.01016
 Alpha  occ. eigenvalues --   -0.96799  -0.87831  -0.85269  -0.84695  -0.83783
 Alpha  occ. eigenvalues --   -0.82772  -0.78152  -0.77434  -0.74724  -0.71265
 Alpha  occ. eigenvalues --   -0.71023  -0.70433  -0.69724  -0.69135  -0.66532
 Alpha  occ. eigenvalues --   -0.66366  -0.63838  -0.62276  -0.58028  -0.56104
 Alpha  occ. eigenvalues --   -0.54676  -0.53702  -0.53204  -0.52140  -0.51281
 Alpha  occ. eigenvalues --   -0.50317  -0.48784  -0.47971  -0.46803  -0.46133
 Alpha  occ. eigenvalues --   -0.45746  -0.45443  -0.45032  -0.44814  -0.44565
 Alpha  occ. eigenvalues --   -0.43778  -0.43270  -0.42767  -0.42138  -0.41910
 Alpha  occ. eigenvalues --   -0.41503  -0.41089  -0.40852  -0.40346  -0.39816
 Alpha  occ. eigenvalues --   -0.39514  -0.38968  -0.38609  -0.38431  -0.38267
 Alpha  occ. eigenvalues --   -0.37446  -0.37226  -0.36924  -0.36514  -0.36323
 Alpha  occ. eigenvalues --   -0.35274  -0.34882  -0.34731  -0.33982  -0.33634
 Alpha  occ. eigenvalues --   -0.33173  -0.32835  -0.32416  -0.31690  -0.31132
 Alpha  occ. eigenvalues --   -0.29676  -0.29054  -0.27434  -0.26643  -0.23538
 Alpha  occ. eigenvalues --   -0.22140  -0.21791  -0.20369  -0.16919
 Alpha virt. eigenvalues --   -0.04305  -0.02443   0.00950   0.01938   0.02350
 Alpha virt. eigenvalues --    0.03127   0.04487   0.05862   0.05924   0.06701
 Alpha virt. eigenvalues --    0.07501   0.08135   0.08328   0.08524   0.09015
 Alpha virt. eigenvalues --    0.09501   0.10207   0.10514   0.10699   0.11330
 Alpha virt. eigenvalues --    0.12053   0.12269   0.12755   0.12870   0.13141
 Alpha virt. eigenvalues --    0.13483   0.13618   0.14051   0.14588   0.15184
 Alpha virt. eigenvalues --    0.15360   0.15650   0.15978   0.16339   0.17081
 Alpha virt. eigenvalues --    0.17269   0.17555   0.17777   0.17903   0.18420
 Alpha virt. eigenvalues --    0.18821   0.19320   0.19460   0.19658   0.20117
 Alpha virt. eigenvalues --    0.20382   0.20687   0.21145   0.21313   0.21747
 Alpha virt. eigenvalues --    0.22038   0.22477   0.22930   0.23175   0.23602
 Alpha virt. eigenvalues --    0.24269   0.24434   0.24636   0.25584   0.25830
 Alpha virt. eigenvalues --    0.26905   0.27166   0.27763   0.28524   0.29147
 Alpha virt. eigenvalues --    0.29762   0.30815   0.31629   0.31728   0.32641
 Alpha virt. eigenvalues --    0.32999   0.33246   0.34448   0.34986   0.36299
 Alpha virt. eigenvalues --    0.36998   0.38358   0.40431   0.41684   0.42134
 Alpha virt. eigenvalues --    0.42329   0.43503   0.44047   0.44404   0.44938
 Alpha virt. eigenvalues --    0.45506   0.45926   0.46561   0.47483   0.47600
 Alpha virt. eigenvalues --    0.48173   0.49196   0.49337   0.50583   0.50795
 Alpha virt. eigenvalues --    0.51301   0.52003   0.52326   0.53055   0.53818
 Alpha virt. eigenvalues --    0.54534   0.55118   0.55704   0.55867   0.56704
 Alpha virt. eigenvalues --    0.57326   0.57663   0.58633   0.58958   0.59807
 Alpha virt. eigenvalues --    0.59937   0.60295   0.61071   0.61395   0.61844
 Alpha virt. eigenvalues --    0.62187   0.62484   0.63094   0.63620   0.63915
 Alpha virt. eigenvalues --    0.64029   0.64497   0.64553   0.64895   0.65102
 Alpha virt. eigenvalues --    0.65466   0.65745   0.66062   0.66632   0.66947
 Alpha virt. eigenvalues --    0.67273   0.67406   0.67789   0.67890   0.68226
 Alpha virt. eigenvalues --    0.68703   0.69094   0.69370   0.69611   0.70058
 Alpha virt. eigenvalues --    0.70501   0.70735   0.71607   0.72094   0.72257
 Alpha virt. eigenvalues --    0.72737   0.73256   0.73676   0.74088   0.74565
 Alpha virt. eigenvalues --    0.74658   0.74934   0.75089   0.75683   0.76057
 Alpha virt. eigenvalues --    0.76691   0.77276   0.77933   0.78409   0.78602
 Alpha virt. eigenvalues --    0.78931   0.79694   0.80165   0.80472   0.81331
 Alpha virt. eigenvalues --    0.81813   0.82664   0.82834   0.83888   0.84138
 Alpha virt. eigenvalues --    0.84727   0.85504   0.86270   0.86763   0.87108
 Alpha virt. eigenvalues --    0.87880   0.88060   0.88831   0.89661   0.90530
 Alpha virt. eigenvalues --    0.91196   0.91872   0.92378   0.92835   0.93188
 Alpha virt. eigenvalues --    0.93986   0.94706   0.95490   0.96036   0.96486
 Alpha virt. eigenvalues --    0.97572   0.97926   0.98823   0.99068   1.00172
 Alpha virt. eigenvalues --    1.01346   1.01729   1.02390   1.03926   1.04116
 Alpha virt. eigenvalues --    1.04567   1.05249   1.06148   1.06772   1.08378
 Alpha virt. eigenvalues --    1.09514   1.10556   1.11490   1.12143   1.13173
 Alpha virt. eigenvalues --    1.13497   1.13960   1.15943   1.17748   1.18133
 Alpha virt. eigenvalues --    1.18348   1.18702   1.20161   1.21679   1.23570
 Alpha virt. eigenvalues --    1.24379   1.25049   1.25222   1.27025   1.27462
 Alpha virt. eigenvalues --    1.28733   1.29028   1.29222   1.30386   1.30495
 Alpha virt. eigenvalues --    1.31603   1.32345   1.33575   1.34065   1.35364
 Alpha virt. eigenvalues --    1.36526   1.36846   1.37208   1.38715   1.38771
 Alpha virt. eigenvalues --    1.39515   1.40805   1.40824   1.41973   1.42140
 Alpha virt. eigenvalues --    1.42739   1.43150   1.43456   1.44137   1.44239
 Alpha virt. eigenvalues --    1.44641   1.45081   1.45982   1.46338   1.47289
 Alpha virt. eigenvalues --    1.47584   1.48366   1.48759   1.49236   1.49512
 Alpha virt. eigenvalues --    1.50953   1.51462   1.52174   1.52680   1.53384
 Alpha virt. eigenvalues --    1.54049   1.54386   1.54565   1.55528   1.56432
 Alpha virt. eigenvalues --    1.56990   1.57892   1.58362   1.59118   1.59807
 Alpha virt. eigenvalues --    1.61383   1.61580   1.61804   1.62419   1.62673
 Alpha virt. eigenvalues --    1.62887   1.63551   1.64427   1.64974   1.65745
 Alpha virt. eigenvalues --    1.66232   1.66761   1.67011   1.67605   1.67883
 Alpha virt. eigenvalues --    1.68036   1.69153   1.69375   1.69554   1.70013
 Alpha virt. eigenvalues --    1.70413   1.70577   1.71175   1.71650   1.72114
 Alpha virt. eigenvalues --    1.72210   1.72459   1.73274   1.73904   1.74085
 Alpha virt. eigenvalues --    1.74456   1.75050   1.75225   1.75696   1.76174
 Alpha virt. eigenvalues --    1.76491   1.76621   1.77113   1.78010   1.78492
 Alpha virt. eigenvalues --    1.78604   1.79719   1.79893   1.80637   1.81394
 Alpha virt. eigenvalues --    1.81428   1.81837   1.82756   1.83414   1.84703
 Alpha virt. eigenvalues --    1.84810   1.85293   1.85673   1.86221   1.86564
 Alpha virt. eigenvalues --    1.87581   1.88438   1.88846   1.89191   1.90248
 Alpha virt. eigenvalues --    1.90539   1.90988   1.91336   1.92591   1.92957
 Alpha virt. eigenvalues --    1.93561   1.94002   1.95045   1.96556   1.96899
 Alpha virt. eigenvalues --    1.97406   1.98314   1.99006   1.99331   1.99840
 Alpha virt. eigenvalues --    2.00378   2.00758   2.01435   2.02797   2.02910
 Alpha virt. eigenvalues --    2.03727   2.04861   2.05640   2.05884   2.06260
 Alpha virt. eigenvalues --    2.06931   2.07590   2.08281   2.09185   2.09583
 Alpha virt. eigenvalues --    2.10067   2.10586   2.11748   2.11890   2.12841
 Alpha virt. eigenvalues --    2.13323   2.14170   2.15518   2.16998   2.17721
 Alpha virt. eigenvalues --    2.18346   2.19441   2.21306   2.21728   2.22279
 Alpha virt. eigenvalues --    2.23077   2.24660   2.25031   2.25704   2.26255
 Alpha virt. eigenvalues --    2.26562   2.27093   2.27481   2.27940   2.28801
 Alpha virt. eigenvalues --    2.29171   2.31353   2.32148   2.34169   2.35128
 Alpha virt. eigenvalues --    2.39011   2.39496   2.40752   2.41211   2.41547
 Alpha virt. eigenvalues --    2.42190   2.42439   2.42855   2.43534   2.44424
 Alpha virt. eigenvalues --    2.44533   2.45136   2.45673   2.46547   2.46987
 Alpha virt. eigenvalues --    2.47507   2.48959   2.49348   2.49787   2.50390
 Alpha virt. eigenvalues --    2.50622   2.51322   2.52163   2.52513   2.53475
 Alpha virt. eigenvalues --    2.53743   2.54848   2.55457   2.56390   2.56883
 Alpha virt. eigenvalues --    2.57204   2.57772   2.58543   2.59154   2.59932
 Alpha virt. eigenvalues --    2.61089   2.61292   2.61816   2.62573   2.65428
 Alpha virt. eigenvalues --    2.66349   2.67507   2.67821   2.69385   2.69710
 Alpha virt. eigenvalues --    2.70416   2.71074   2.73339   2.74410   2.77803
 Alpha virt. eigenvalues --    2.78417   2.78984   2.80922   2.82071   2.83307
 Alpha virt. eigenvalues --    2.85406   2.87670   2.96552   2.99661   3.02785
 Alpha virt. eigenvalues --    3.08110   3.14089   3.15263   3.16560   3.50588
 Alpha virt. eigenvalues --    3.61306   3.87138  34.72890  35.05285  35.12294
 Alpha virt. eigenvalues --   46.06255
          Condensed to atoms (all electrons):
 Mulliken charges:
               1
     1  N   -0.309960
     2  C    0.062558
     3  C    0.099167
     4  C   -0.046981
     5  C    0.082121
     6  C   -0.045026
     7  C    0.114811
     8  H    0.003583
     9  H    0.019206
    10  H    0.005635
    11  C   -0.099374
    12  N   -0.383481
    13  H    0.033864
    14  H    0.105935
    15  H    0.145876
    16  P    0.226435
    17  H    0.051842
    18  Ru  -0.209979
    19  C   -0.023649
    20  C   -0.481836
    21  C    0.007041
    22  C   -0.453625
    23  C    0.015819
    24  C   -0.009393
    25  C    0.008043
    26  C   -0.014365
    27  C    0.013742
    28  C   -0.013236
    29  H    0.004867
    30  H    0.143650
    31  C   -0.070539
    32  H    0.081504
    33  H    0.086791
    34  C   -0.096419
    35  H    0.026514
    36  C    0.022786
    37  O   -0.438937
    38  H    0.145146
    39  H    0.105050
    40  H    0.049895
    41  H    0.054200
    42  H    0.056990
    43  H    0.045150
    44  H    0.043702
    45  H    0.023717
    46  H    0.074032
    47  H    0.086400
    48  H    0.041287
    49  H    0.082318
    50  H    0.042807
    51  H    0.039305
    52  H    0.030440
    53  H    0.046722
    54  H    0.049219
    55  H    0.038391
    56  H    0.040913
    57  H    0.036321
    58  H    0.127026
    59  H    0.031297
    60  H    0.033829
    61  H    0.121992
    62  H    0.042033
    63  O   -0.153172
 Sum of Mulliken charges =  -0.00000
 Mulliken charges with hydrogens summed into heavy atoms:
               1
     1  N   -0.309960
     2  C    0.062558
     3  C    0.099167
     4  C   -0.043399
     5  C    0.101327
     6  C   -0.039390
     7  C    0.254609
    11  C    0.098344
    12  N   -0.383481
    16  P    0.226435
    18  Ru  -0.205112
    19  C    0.201505
    20  C   -0.481836
    21  C    0.120346
    22  C   -0.453625
    23  C    0.199967
    24  C    0.157018
    25  C    0.124510
    26  C    0.183489
    27  C    0.142266
    28  C    0.181407
    31  C    0.075304
    34  C    0.112726
    36  C    0.022786
    37  O   -0.293791
    63  O   -0.153172
 Electronic spatial extent (au):  <R**2>=           9556.2237
 Charge=             -0.0000 electrons
 Dipole moment (field-independent basis, Debye):
    X=             -1.0440    Y=              5.0007    Z=              0.8445  Tot=              5.1779
 Quadrupole moment (field-independent basis, Debye-Ang):
   XX=           -161.5485   YY=           -177.4001   ZZ=           -189.0591
   XY=              0.1823   XZ=             -5.0559   YZ=              1.4380
 Traceless Quadrupole moment (field-independent basis, Debye-Ang):
   XX=             14.4540   YY=             -1.3975   ZZ=            -13.0566
   XY=              0.1823   XZ=             -5.0559   YZ=              1.4380
 Octapole moment (field-independent basis, Debye-Ang**2):
  XXX=            -59.1635  YYY=             51.7600  ZZZ=              9.1550  XYY=            -37.3021
  XXY=            -13.0149  XXZ=              5.3527  XZZ=             -3.5888  YZZ=            -20.9539
  YYZ=            -23.2585  XYZ=             -1.4580
 Hexadecapole moment (field-independent basis, Debye-Ang**3):
 XXXX=          -7120.3135 YYYY=          -3751.6379 ZZZZ=          -1964.8854 XXXY=            -23.8658
 XXXZ=            -19.4817 YYYX=            -32.3877 YYYZ=            -53.7982 ZZZX=             -0.3259
 ZZZY=             18.2923 XXYY=          -1762.2012 XXZZ=          -1498.7471 YYZZ=           -971.9498
 XXYZ=             19.6129 YYXZ=            -25.4927 ZZXY=             32.2338
 N-N= 3.240237556067D+03 E-N=-9.916391432933D+03  KE= 1.410382121888D+03
   1 Symmetry operations used in ECPInt.
 ECPInt:  NShTT=   38503 NPrTT=  265225 LenC2=   35739 LenP2D=  135722.
 LDataN:  DoStor=T MaxTD1= 7 Len=  274
 Calling FoFJK, ICntrl=      2127 FMM=T ISym2X=0 I1Cent= 0 IOpClX= 0 NMat=1 NMatS=1 NMatT=0.
 Defaulting to unpruned grid for atomic number  44.
 Defaulting to unpruned grid for atomic number  44.
 Defaulting to unpruned grid for atomic number  44.
 Defaulting to unpruned grid for atomic number  44.
 Defaulting to unpruned grid for atomic number  44.
 Defaulting to unpruned grid for atomic number  44.
 Defaulting to unpruned grid for atomic number  44.
 Defaulting to unpruned grid for atomic number  44.
 Defaulting to unpruned grid for atomic number  44.
 Defaulting to unpruned grid for atomic number  44.
 Defaulting to unpruned grid for atomic number  44.
 Defaulting to unpruned grid for atomic number  44.
 Defaulting to unpruned grid for atomic number  44.
 Defaulting to unpruned grid for atomic number  44.
 Defaulting to unpruned grid for atomic number  44.
 Defaulting to unpruned grid for atomic number  44.
 ***** Axes restored to original set *****
 -------------------------------------------------------------------
 Center     Atomic                   Forces (Hartrees/Bohr)
 Number     Number              X              Y              Z
 -------------------------------------------------------------------
      1        7          -0.000149063   -0.000342264   -0.000055260
      2        6          -0.000200668   -0.000536446    0.000246929
      3        6           0.000243022   -0.000030170   -0.000172047
      4        6           0.000079457   -0.000610627    0.000047557
      5        6           0.000029429   -0.000031594   -0.000004038
      6        6           0.000201245   -0.000583424    0.000193774
      7        6           0.000305021   -0.000252516   -0.000282582
      8        1           0.000106152   -0.000176056   -0.000038672
      9        1           0.000042329   -0.000149526    0.000019776
     10        1          -0.000009186   -0.000224612    0.000084680
     11        6           0.000134760   -0.000428686    0.000324783
     12        7           0.000451503    0.000191032   -0.000161085
     13        1           0.000209922   -0.000215734   -0.000222951
     14        1           0.000095967    0.000001824   -0.000310136
     15        1           0.000190973   -0.000082669    0.000350040
     16       15          -0.000877294   -0.000753319   -0.000203701
     17        1           0.000068697   -0.000323828    0.000356353
     18       44           0.000518919   -0.000122875    0.000368584
     19        6           0.000346502    0.000166906    0.000390148
     20        6          -0.000127215    0.000143044    0.000357154
     21        6           0.000313464    0.000282979   -0.000244822
     22        6          -0.000103834   -0.000245498   -0.000427699
     23        6          -0.000099634    0.000227621    0.000504996
     24        6          -0.000683202    0.000536363    0.000085628
     25        6          -0.000353901    0.000016380    0.000364747
     26        6          -0.000221881   -0.000228020   -0.000585006
     27        6          -0.000408210   -0.000340445   -0.000329917
     28        6          -0.000277710    0.000118299   -0.000540653
     29        1           0.000282768    0.000164519   -0.000155647
     30        1           0.000286302    0.000104247    0.000214233
     31        6           0.000554481   -0.000016945    0.000332970
     32        1           0.000254410    0.000128248    0.000178466
     33        1           0.000188399    0.000095642   -0.000348515
     34        6           0.000241608    0.000478642   -0.000185562
     35        1           0.000135949    0.000099627   -0.000191873
     36        6          -0.000203018    0.000755434   -0.000149631
     37        8          -0.000124379    0.000108759    0.000369023
     38        1           0.000176686    0.000112777    0.000255814
     39        1           0.000019820    0.000041766    0.000035663
     40        1           0.000132263    0.000234450    0.000009262
     41        1           0.000100580    0.000182535   -0.000081443
     42        1           0.000148210   -0.000003144    0.000133835
     43        1           0.000201563   -0.000005801    0.000078795
     44        1           0.000203775    0.000024002    0.000090166
     45        1          -0.000068632    0.000190676    0.000203119
     46        1          -0.000046326   -0.000003783    0.000249957
     47        1           0.000074452    0.000427948    0.000379098
     48        1          -0.000131378    0.000192614    0.000058537
     49        1          -0.000131172    0.000381836    0.000006780
     50        1          -0.000245420    0.000283553   -0.000082551
     51        1          -0.000219863   -0.000047334    0.000235816
     52        1          -0.000413549   -0.000126777    0.000086875
     53        1          -0.000293815    0.000080639    0.000174456
     54        1          -0.000259737   -0.000156729   -0.000063124
     55        1          -0.000192155   -0.000097783   -0.000132463
     56        1          -0.000307912   -0.000054916   -0.000084985
     57        1          -0.000077374    0.000060965   -0.000173472
     58        1          -0.000123842    0.000132007   -0.000416194
     59        1          -0.000063875    0.000095525   -0.000262879
     60        1          -0.000003343   -0.000148402   -0.000253170
     61        1           0.000198678    0.000005018   -0.000220759
     62        1          -0.000135989   -0.000289381   -0.000308601
     63        8           0.000016274    0.000563424   -0.000098574
 -------------------------------------------------------------------
 Cartesian Forces:  Max     0.000877294 RMS     0.000266341

 GradGradGradGradGradGradGradGradGradGradGradGradGradGradGradGradGradGrad
 Berny optimization.
 FormGI is forming the generalized inverse of G from B-inverse, IUseBI=4.
 Internal  Forces:  Max     0.008344991 RMS     0.001088993
 Search for a local minimum.
 Step number   1 out of a maximum of  374
 All quantities printed in internal units (Hartrees-Bohrs-Radians)
 Mixed Optimization -- RFO/linear search
 Second derivative matrix not updated -- first step.
 ITU=  0
     Eigenvalues ---    0.00230   0.00230   0.00230   0.00317   0.00322
     Eigenvalues ---    0.00330   0.00333   0.00342   0.00376   0.00458
     Eigenvalues ---    0.00474   0.00576   0.00576   0.00592   0.00651
     Eigenvalues ---    0.00780   0.01121   0.01353   0.01690   0.01814
     Eigenvalues ---    0.02169   0.02186   0.02188   0.02198   0.02323
     Eigenvalues ---    0.02524   0.02720   0.02798   0.03607   0.03653
     Eigenvalues ---    0.03981   0.04119   0.04203   0.04252   0.04771
     Eigenvalues ---    0.04771   0.04900   0.04910   0.05005   0.05142
     Eigenvalues ---    0.05161   0.05180   0.05196   0.05202   0.05228
     Eigenvalues ---    0.05327   0.05352   0.05372   0.05387   0.05439
     Eigenvalues ---    0.05456   0.05456   0.05705   0.05715   0.05715
     Eigenvalues ---    0.05721   0.05725   0.05753   0.05754   0.05782
     Eigenvalues ---    0.05873   0.05985   0.06637   0.07545   0.08153
     Eigenvalues ---    0.08763   0.09321   0.09414   0.09766   0.09935
     Eigenvalues ---    0.10249   0.11805   0.12032   0.12945   0.13073
     Eigenvalues ---    0.13293   0.13332   0.14115   0.14244   0.14331
     Eigenvalues ---    0.14550   0.14666   0.15515   0.15997   0.15999
     Eigenvalues ---    0.16000   0.16000   0.16000   0.16000   0.16000
     Eigenvalues ---    0.16000   0.16000   0.16000   0.16000   0.16000
     Eigenvalues ---    0.16000   0.16000   0.16000   0.16000   0.16000
     Eigenvalues ---    0.16000   0.16000   0.16000   0.16000   0.16000
     Eigenvalues ---    0.16000   0.16000   0.16000   0.16000   0.16000
     Eigenvalues ---    0.16000   0.16058   0.16293   0.17187   0.18234
     Eigenvalues ---    0.18940   0.18980   0.20999   0.21904   0.22015
     Eigenvalues ---    0.22020   0.22104   0.23167   0.23727   0.24768
     Eigenvalues ---    0.24961   0.29061   0.29096   0.29152   0.29174
     Eigenvalues ---    0.29235   0.29471   0.29936   0.30168   0.30919
     Eigenvalues ---    0.31435   0.32486   0.32766   0.33106   0.33243
     Eigenvalues ---    0.33301   0.33309   0.33313   0.33314   0.33329
     Eigenvalues ---    0.33344   0.33387   0.33507   0.33545   0.33570
     Eigenvalues ---    0.33588   0.33597   0.33627   0.33654   0.33676
     Eigenvalues ---    0.33693   0.33703   0.33709   0.33711   0.33718
     Eigenvalues ---    0.33719   0.33747   0.33782   0.33786   0.33842
     Eigenvalues ---    0.33850   0.33934   0.33941   0.33941   0.34077
     Eigenvalues ---    0.34209   0.34598   0.34720   0.34734   0.34737
     Eigenvalues ---    0.42554   0.43662   0.46619   0.47053   0.51045
     Eigenvalues ---    0.54643   0.55854   1.23195
 RFO step:  Lambda=-2.92016789D-03 EMin= 2.30000000D-03
 Linear search not attempted -- first point.
 Iteration  1 RMS(Cart)=  0.15700413 RMS(Int)=  0.00341044
 Iteration  2 RMS(Cart)=  0.00992779 RMS(Int)=  0.00006445
 Iteration  3 RMS(Cart)=  0.00004212 RMS(Int)=  0.00006351
 Iteration  4 RMS(Cart)=  0.00000001 RMS(Int)=  0.00006351
 Variable       Old X    -DE/DX   Delta X   Delta X   Delta X     New X
                                 (Linear)    (Quad)   (Total)
    R1        2.53173  -0.00514   0.00000  -0.00938  -0.00935   2.52238
    R2        2.53785  -0.00251   0.00000  -0.00428  -0.00425   2.53360
    R3        3.97663  -0.00233   0.00000  -0.01327  -0.01326   3.96337
[...]
 ,-0.00008542,0.00001294,0.00004316,0.00009486,0.00008314,0.00002196,0.
 00000120,0.00001786,-0.00000116,-0.00000349,0.00000755,-0.00001008,0.0
 0002406,-0.00003781,-0.00027403,-0.00016470,0.00002993,0.00001325,-0.0
 0004667,-0.00004765,0.00003093,-0.00004379,0.00001882,-0.00008715,0.00
 013010,-0.00001190,0.00009675,0.00010530,-0.00002566,0.00114874,0.0007
 9913,-0.00084864,0.00009509,-0.00004002,0.00000423,-0.00033109,0.00078
 930,-0.00045028,0.00001245,-0.00002757,-0.00006574,-0.00003530,-0.0001
 3766,0.00007683,-0.00002157,-0.00001943,-0.00003763,0.02091724,0.00859
 032,-0.00120637,-0.00002702,-0.00000021,-0.00000454,0.00003857,-0.0000
 0164,0.00004588,-0.00002380,0.00011419,0.00005537,-0.09038980,-0.07861
 853,0.01377648,0.00261769,-0.00350410,-0.00204875,0.00030569,0.0015059
 9,-0.00020440,-0.00060116,-0.00039248,0.00085520,-0.00003539,0.0000234
 0,0.00002862,0.00000418,0.00001252,0.00001692,-0.00000458,-0.00002155,
 -0.00001210,-0.00003798,-0.00000519,0.00003270,-0.00001068,-0.00000544
 ,0.00001990,0.00004747,-0.00000273,0.00000698,0.00021370,-0.00080518,-
 0.00025286,0.00003773,-0.00032919,0.00067847,0.00003382,-0.00005580,0.
 00000262,-0.00000856,-0.00001980,-0.00001408,0.00001128,0.00000429,0.0
 0000712,0.00000303,-0.00000277,-0.00000525,0.00000595,-0.00000383,0.00
 000390,0.00001225,-0.00001342,-0.00000239,0.00000262,-0.00000140,-0.00
 000226,-0.00002164,0.00000763,0.00001553,0.00004212,-0.00000383,-0.000
 02538,0.00000537,-0.00002320,0.00001366,-0.00001767,-0.00000079,-0.000
 00306,-0.00001066,-0.00002263,-0.00001346,-0.00001740,0.00006384,-0.00
 001170,-0.00003387,-0.00002062,0.00002065,-0.00001895,-0.00003990,0.00
 005906,-0.00001394,-0.00001676,-0.00001888,0.00164288,0.00060282,-0.00
 049998,-0.00011117,-0.00025623,0.00005647,0.00005579,0.00010878,-0.000
 27152,-0.00025616,0.00007504,-0.00010336,-0.00006570,-0.00048599,0.000
 15987,-0.00008000,-0.00003342,-0.00003558,-0.00484920,-0.00307882,0.00
 145622,0.09306789,0.08222358,-0.00049224,0.00015169,-0.00054304,-0.000
 82312,0.00017824,0.00007442,0.00059799,0.00048840,-0.00065912,-0.00001
 261,-0.00013952,-0.00002659,0.00008114,-0.00001716,-0.00005064,-0.0000
 8274,0.00006615,-0.00000608,-0.00003815,-0.00004889,0.00007403,0.00002
 827,-0.00002973,0.00001261,0.00001199,-0.00000998,0.00001730,-0.000000
 46,-0.00006160,0.00004702,-0.00003874,0.00007581,-0.00021818,0.0000063
 8,-0.00000798,-0.00009098,0.00006337,0.00001226,-0.00000442,-0.0000093
 0,0.00003407,0.00003900,-0.00012452,-0.00000336,-0.00002380,0.00233080
 ,0.00024367,-0.00056819,-0.00008542,-0.00015551,0.00016318,-0.00027269
 ,0.00073849,-0.00018819,-0.00002567,-0.00000121,-0.00003314,-0.0000694
 9,-0.00010565,0.00000073,-0.00000737,-0.00003586,0.00007726,0.01244663
 ,0.00552246,-0.00339202,-0.00002765,0.00001489,-0.00000679,0.00003022,
 0.00001601,0.00009557,-0.00000166,0.00012135,0.00007405,0.02980467,0.0
 1224866,-0.04815079,0.00129743,-0.00280132,-0.00121099,-0.00078321,0.0
 0030777,0.00001950,-0.00010204,0.00003512,0.00000400,-0.00001784,-0.00
 000102,-0.00000794,0.00000504,-0.00000495,0.00000999,-0.00000591,0.000
 00269,-0.00000555,-0.00002380,0.00000455,0.00001858,-0.00001258,0.0000
 2388,-0.00001032,0.00003328,0.00000092,-0.00000597,0.00038890,-0.00066
 716,0.00026510,-0.00003692,-0.00014127,0.00028829,-0.00000823,0.000014
 03,-0.00006381,-0.00000437,-0.00002514,0.00002302,0.00000763,-0.000003
 63,0.00000044,0.00000773,0.00001097,-0.00000719,0.00000697,0.00000194,
 0.00000778,-0.00000525,-0.00000044,-0.00000208,0.00000849,0.00000554,-
 0.00000631,-0.00002113,0.00000992,0.00001891,0.00003195,-0.00000799,-0
 .00002550,0.00000740,-0.00002466,-0.00001271,-0.00003092,0.00001390,-0
 .00002729,0.00001520,-0.00000440,-0.00000071,-0.00006295,0.00003165,-0
 .00002519,-0.00004394,-0.00002698,0.00001447,-0.00004058,-0.00002525,0
 .00004305,-0.00000650,-0.00000354,-0.00002154,0.00120821,0.00022004,0.
 00043554,0.00017707,0.00014340,0.00029993,-0.00035921,-0.00017304,0.00
 017153,0.00001455,-0.00006810,-0.00018594,-0.00003410,0.00006066,0.000
 47499,-0.00017603,-0.00014280,-0.00005897,-0.02615646,-0.00936711,0.00
 431620,-0.03525539,-0.01221249,0.05148159,-0.00029169,-0.00024400,0.00
 020242,-0.00010895,-0.00017266,0.00011938,0.00010213,-0.00033448,-0.00
 099645,0.00000601,0.00014682,-0.00001648,-0.00025098,0.00010809,0.0001
 4500,0.00006500,0.00035757,-0.00023721,-0.00002788,-0.00008456,-0.0000
 2388,0.00000920,-0.00000156,-0.00001102,0.00000518,-0.00000753,-0.0000
 1628,0.00001616,-0.00002516,0.00000341,0.00036457,0.00007067,-0.000216
 92,-0.00000422,0.00003963,-0.00002205,-0.00000241,0.00002640,-0.000009
 92,0.00007906,0.00002338,0.00000825,-0.00017341,-0.00005877,0.00000015
 ,0.00016859,-0.00026525,-0.00009389,-0.00008532,-0.00010657,0.00022905
 ,0.00001790,-0.00054889,0.00028916,-0.00002590,0.00000766,0.00002253,-
 0.00007687,0.00002844,-0.00005442,-0.00000027,0.00000330,0.00004812,-0
 .00133443,0.01330912,-0.01177996,0.00001624,-0.00003342,0.00000158,0.0
 0000350,0.00000414,0.00004865,0.00004821,0.00002598,0.00003887,-0.0453
 3444,0.00339660,-0.00107687,0.00116739,0.00067542,-0.00118459,-0.00252
 421,0.00294696,0.00188233,-0.00004907,-0.00023777,-0.00057389,0.000017
 98,-0.00001105,-0.00002294,-0.00000003,-0.00001066,-0.00000621,0.00000
 645,0.00001308,0.00000067,0.00001276,0.00000198,-0.00000792,0.00000408
 ,0.00001048,-0.00001136,-0.00000856,-0.00000096,-0.00000392,-0.0000491
 3,0.00022002,0.00005381,-0.00002486,0.00017260,-0.00024409,0.00000242,
 0.00003647,-0.00001104,0.00000014,0.00000068,0.00000734,-0.00000104,-0
 .00000302,-0.00000111,0.00000122,0.00000666,0.00000107,-0.00000152,0.0
 0000242,0.00000113,-0.00001100,0.00000595,0.00000205,0.00000228,0.0000
 0461,-0.00000141,-0.00000352,-0.00000023,-0.00000315,0.00000509,-0.000
 00121,0.00000667,-0.00000826,-0.00000659,-0.00000638,-0.00000603,-0.00
 000319,0.00001724,-0.00003104,-0.00004479,-0.00002415,0.00003071,0.000
 02522,-0.00004388,-0.00001184,-0.00001460,-0.00001203,-0.00003396,-0.0
 0000300,0.00000466,-0.00000094,-0.00000778,-0.00000175,0.00027830,-0.0
 0025811,0.00002645,-0.00009063,0.00002426,-0.00011822,-0.00028936,-0.0
 0018479,0.00056287,0.00031544,0.00124687,-0.00062673,0.00004661,0.0001
 8493,-0.00004855,-0.00001586,-0.00017324,0.00034541,-0.00109331,0.0099
 1191,-0.00611202,0.00336358,-0.02263779,0.01691330,0.04578893,-0.00013
 511,-0.00035204,0.00040434,-0.00011388,-0.00027382,0.00003858,-0.00023
 477,0.00077630,-0.00018496,0.00017674,0.00020060,-0.00024178,-0.000433
 00,0.00010016,0.00018875,0.00053216,-0.00009077,0.00037778,-0.00000647
 ,-0.00008973,-0.00001580,0.00000897,0.00000338,-0.00000011,0.00001341,
 -0.00001585,0.00000174,-0.00002314,0.00000225,-0.00000954,-0.00005292,
 0.00011315,-0.00003929,-0.00002062,0.00001562,0.00001209,-0.00000026,0
 .00002893,-0.00000718,0.00004880,0.00000669,0.00000324,0.00005751,0.00
 004074,0.00000723,0.00089806,-0.00155176,0.00189361,0.00016116,0.00023
 165,-0.00039538,-0.00045092,0.00003561,-0.00021117,-0.00001185,0.00000
 239,0.00002973,-0.00004820,0.00007443,-0.00019420,-0.00000943,-0.00000
 068,0.00004787,-0.00203242,-0.01656995,0.01319923,0.00004344,0.0000350
 9,-0.00003461,-0.00000757,0.00007950,0.00007092,-0.00003421,-0.0000229
 7,-0.00000275,0.00417452,-0.22927249,0.12583527,-0.00151632,0.00071738
 ,0.00037717,0.00367972,-0.00304013,-0.00361947,0.00004322,-0.00015989,
 -0.00033488,0.00000576,-0.00001386,-0.00002196,0.00000108,-0.00001087,
 -0.00001114,0.00000412,0.00001051,0.00000246,0.00001107,-0.00000463,-0
 .00001060,0.00000524,0.00001039,-0.00001043,-0.00001262,-0.00000209,-0
 .00000016,0.00020539,-0.00008621,0.00022454,0.00001174,0.00017977,-0.0
 0023179,0.00002232,0.00004523,0.00000230,0.00000246,-0.00000104,0.0000
 0855,-0.00000389,-0.00000221,-0.00000171,0.00000478,0.00000789,-0.0000
 0144,-0.00000353,0.00000229,0.00000075,-0.00001250,0.00000545,0.000003
 61,0.00000519,0.00000526,-0.00000170,-0.00001388,-0.00000580,-0.000008
 26,-0.00000841,-0.00000981,-0.00003155,0.00000811,0.00000783,0.0000054
 7,-0.00002514,0.00002538,-0.00007421,0.00005146,0.00007911,0.00004886,
 -0.00011624,-0.00003861,0.00002226,0.00000115,0.00002656,-0.00000334,0
 .00002552,-0.00001393,0.00001943,0.00000765,0.00001443,-0.00005954,-0.
 00016413,0.00020627,-0.00030043,0.00007225,-0.00002839,-0.00004310,0.0
 0071393,0.00051765,-0.00035489,0.00015935,-0.00113581,0.00136169,-0.00
 001252,0.00036512,-0.00009287,-0.00002585,0.00031303,-0.00005681,-0.00
 038347,0.00654809,-0.00514236,0.00236870,-0.00734440,0.00500224,-0.007
 49404,0.24913534,-0.00007489,0.00004993,-0.00033659,0.00015781,0.00002
 706,0.00004296,-0.00128727,-0.00010371,-0.00108972,0.00003463,0.000060
 12,0.00001206,0.00006716,-0.00006831,0.00000766,-0.00032023,0.00006149
 ,-0.00050231,-0.00000994,0.00001244,-0.00002801,0.00001441,0.00000116,
 0.00000142,0.00002273,-0.00002176,0.00000145,0.00000364,0.00003731,0.0
 0002251,-0.00018304,-0.00039143,-0.00083008,0.00003392,-0.00000849,0.0
 0001418,0.00001374,-0.00000398,0.00000123,-0.00000985,0.00002249,-0.00
 000406,0.00000445,-0.00012120,-0.00006294,-0.00024794,-0.00070713,0.00
 052185,0.00014647,0.00008076,-0.00040946,0.00004495,0.00003756,-0.0000
 2963,-0.00000144,-0.00000139,-0.00002200,0.00019620,0.00006728,0.00006
 078,-0.00001531,-0.00000725,-0.00000278,-0.00006724,-0.01168187,0.0072
 0813,-0.00007742,0.00002315,0.00002587,-0.00001513,-0.00000112,0.00003
 610,0.00000808,0.00002321,-0.00000127,-0.00159092,0.12811556,-0.131591
 12,-0.00045998,-0.00032725,0.00055652,0.00109674,-0.00161673,-0.000670
 88,0.00000314,0.00004351,0.00009878,-0.00000747,0.00000585,0.00000639,
 0.00000263,0.00000289,0.00000627,-0.00000219,-0.00000258,0.00000088,-0
 .00000339,-0.00000042,0.00000391,-0.00000340,0.00000083,0.00000172,0.0
 0000940,-0.00000018,-0.00000108,-0.00000488,-0.00011462,-0.00004512,0.
 00006335,-0.00000330,0.00009963,-0.00000113,-0.00000800,-0.00001671,-0
 .00000402,-0.00000621,-0.00000455,0.00000322,0.00000073,0.00000310,-0.
 00000065,0.00000028,-0.00000139,0.00000291,-0.00000006,0.00000288,0.00
 000098,-0.00000221,-0.00000243,0.00000086,0.00000038,-0.00000205,0.000
 00379,0.00002307,0.00003314,0.00000223,-0.00001049,-0.00000363,0.00000
 104,-0.00000070,-0.00000293,-0.00001424,0.00000965,0.00000270,-0.00000
 184,-0.00000130,0.00000269,-0.00000904,0.00000667,0.00000854,-0.000014
 15,0.00000612,0.00000515,-0.00000414,0.00000026,0.00000198,0.00000497,
 0.00000204,-0.00000597,-0.00020200,-0.00017649,-0.00000157,0.00000425,
 0.00020511,-0.00020524,-0.00016354,0.00021071,0.00010676,0.00029959,-0
 .00049401,0.00087629,0.00001423,-0.00004428,-0.00018581,0.00034716,-0.
 00007961,0.00047230,0.00083831,0.02291740,-0.01451965,-0.00127136,0.00
 122781,-0.00277580,0.00263467,-0.13735148,0.14310873,-0.00749175,-0.00
 162844,-0.00022348,0.00072172,0.00151358,-0.00038796,-0.00049389,-0.00
 067235,0.00053952,-0.00025992,0.00021858,0.00032624,-0.00026194,0.0001
 7869,0.00002802,0.00027142,-0.00014845,0.00027214,0.00013919,-0.000298
 81,-0.00034274,-0.00009909,0.00016378,-0.00003942,-0.00000396,0.000018
 56,-0.00004137,0.00004075,0.00004491,-0.00002136,0.00112033,0.00002665
 ,-0.00040093,-0.00061181,-0.00188979,0.00043807,-0.00014918,0.00004182
 ,-0.00000039,0.00009118,-0.00005050,-0.00003571,-0.00002881,-0.0000777
 8,0.00005587,-0.00670131,0.00261118,0.00025844,-0.00003110,0.00035839,
 -0.00019600,0.03845221,0.02468568,-0.00135050,0.00001133,0.00006799,0.
 00047828,-0.00012550,0.00030890,0.00040702,-0.00066154,0.00092479,-0.0
 0007524,0.00056192,-0.00002563,-0.00034659,0.00112129,0.00062097,-0.00
 009190,0.00059933,0.00095890,-0.00155787,0.00033683,-0.00051312,-0.000
 12469,-0.00012154,-0.00003474,0.00004395,-0.00003083,-0.00001473,0.000
 34835,0.00007618,0.00023513,0.00016938,-0.00050007,-0.00152327,0.00097
 724,0.00005415,0.00000883,0.00003146,-0.00004799,0.00003051,-0.0001580
 9,-0.00004313,-0.00002036,-0.00004984,0.00006978,0.00005508,-0.0000258
 9,0.00104752,-0.00014125,-0.00094922,-0.00028298,-0.00010426,0.0003218
 4,-0.13152178,0.24107700,-0.03709888,0.00036132,-0.00188814,-0.0017694
 9,-0.00028436,0.00018950,-0.00061071,-0.00168966,0.00005693,0.00032694
 ,-0.00016496,0.00008416,0.00009081,-0.00006731,-0.00007661,0.00005499,
 -0.00007322,0.00001020,-0.00005642,-0.00000055,-0.00000291,0.00001760,
 -0.00002115,-0.00001358,0.00005346,-0.00003114,-0.00027168,-0.00003708
 ,-0.00053896,-0.00017144,0.00039815,-0.00046474,-0.00010336,-0.0004078
 5,-0.00005615,-0.00033380,0.00018533,0.00015062,-0.00015616,0.00066238
 ,-0.00035921,-0.00031534,0.00023675,0.00018519,0.00008603,-0.00016283,
 -0.00012598,-0.00002767,0.00001080,-0.00007807,-0.00012529,0.00020690,
 0.00017817,-0.00001695,-0.00001467,0.00015555,0.00003807,-0.00000476,-
 0.00006718,-0.00006191,0.00000944,0.00046787,-0.00001063,0.00006583,-0
 .00030344,0.00035194,-0.00001485,0.00005563,-0.00018861,0.00006634,0.0
 0013199,0.00001704,0.00005389,0.00000911,-0.00014525,-0.00022539,0.000
 02581,-0.00011769,-0.00001362,0.10735779,-0.00181362,0.00630089,-0.000
 44643,-0.00097384,-0.00055460,0.00058569,0.00111085,-0.00046012,-0.000
 33515,0.00020685,0.00004083,-0.00002968,0.00023444,-0.00075461,0.00000
 419,-0.00027386,0.00003870,0.00001397,-0.00089930,0.00065076,0.0001473
 5,0.00016768,-0.00018254,-0.00000130,0.00002216,-0.00006892,0.00000444
 ,-0.00002562,-0.00021149,0.00007717,-0.00150412,-0.00047876,0.00034344
 ,0.00134449,0.00330264,-0.00053138,0.00055472,-0.00029756,0.00001345,-
 0.00038954,0.00026175,0.00022932,0.00008409,0.00020931,-0.00012414,0.0
 1344005,0.00616773,-0.00261823,-0.00002198,-0.00077767,0.00039444,0.01
 701432,-0.07991965,0.00693089,0.00005023,-0.00026211,-0.00181531,-0.00
 129969,-0.00337182,-0.00093420,-0.00046687,-0.00365472,0.00149388,-0.0
 0212467,-0.00066398,0.00173742,-0.00142235,-0.00116631,-0.00010324,-0.
 00080570,-0.00075547,0.00193485,-0.00100549,0.00204880,0.00087340,-0.0
 0001002,0.00017417,-0.00017912,0.00011638,-0.00013586,-0.00156804,-0.0
 0037667,-0.00046982,-0.00010370,-0.00087369,0.00520121,-0.00341261,-0.
 00057818,0.00022928,-0.00005316,0.00012324,0.00000181,0.00061428,-0.00
 000376,-0.00003345,0.00046938,-0.00019789,-0.00046412,0.00007840,0.000
 54399,0.00033826,-0.00126596,0.00071091,0.00117778,-0.00035783,0.24271
 426,-0.86159356,0.12416382,-0.00012550,0.00532874,0.00549604,0.0003305
 9,-0.00125129,0.00204637,0.00160360,-0.00103717,0.00131810,-0.00075308
 ,0.00041612,0.00023984,0.00051082,0.00034205,-0.00014120,0.00025692,-0
 .00003401,0.00013990,-0.00007094,0.00011910,-0.00006566,0.00029804,0.0
 0002423,-0.00019477,-0.00007773,0.00056296,0.00023151,0.00100769,0.000
 19198,-0.00072723,0.00001203,-0.00036737,0.00102921,-0.00044415,0.0005
 0723,-0.00005056,-0.00096401,-0.00051113,-0.00063982,0.00044418,0.0003
 8355,-0.00031052,-0.00076657,-0.00025361,0.00060876,0.00029716,0.00006
 893,-0.00010307,0.00017639,0.00012097,-0.00032957,-0.00028610,0.000084
 73,0.00009366,-0.00062422,-0.00028028,-0.00009280,0.00016842,0.0001148
 0,0.00004326,-0.00086630,0.00000240,-0.00000364,0.00085845,-0.00098891
 ,0.00031199,-0.00018283,0.00026554,-0.00029154,-0.00030829,-0.00017497
 ,-0.00025469,0.00000955,0.00046679,0.00051637,-0.00006264,0.00016826,0
 .00007472,-0.26381330,0.92586357,0.00004525,-0.00025585,-0.00741184,0.
 00042493,-0.00011725,0.00001363,-0.00070824,0.00080676,0.00033554,0.00
 015775,0.00009158,0.00048380,-0.00010408,0.00013792,-0.00008238,0.0004
 5781,0.00014378,0.00038855,0.00008849,-0.00010173,-0.00031118,-0.00003
 747,0.00004021,0.00000088,-0.00003328,-0.00000434,-0.00005973,-0.00000
 626,0.00011403,-0.00003002,0.00001537,-0.00000176,-0.00020291,-0.00011
 063,-0.00042027,0.00007986,-0.00008993,0.00002336,0.00000158,0.0000841
 7,0.00000779,-0.00001139,0.00005911,-0.00013348,0.00000161,-0.00166303
 ,-0.00087198,-0.00080040,0.00002404,0.00008093,-0.00004188,-0.00085573
 ,0.00774607,0.03818781,-0.00003822,-0.00005586,0.00015182,0.00041423,0
 .00064063,-0.00012103,-0.00018847,0.00062174,-0.00039741,0.00008047,0.
 00006520,-0.00036997,-0.00053420,-0.00037207,0.00036354,0.00014664,0.0
 0023366,-0.00010822,0.00026990,-0.00026752,0.00005736,0.00002440,-0.00
 004137,0.00015373,0.00003984,-0.00006571,0.00027652,0.00023200,0.00013
 668,0.00007681,-0.00110112,0.00356809,0.00061181,0.00010126,-0.0000532
 6,0.00001381,-0.00001057,0.00002397,-0.00005010,0.00003926,0.00000560,
 -0.00008836,-0.00007743,0.00018365,0.00007480,0.00017383,-0.00004167,0
 .00029553,-0.00005601,-0.00013192,0.00012740,-0.03761331,0.12527848,-0
 .07955449,0.00004765,-0.00207027,-0.00037431,0.00016621,-0.00002338,-0
 .00062217,-0.00027922,0.00003892,-0.00041566,0.00019721,-0.00010955,-0
 .00001441,-0.00023330,-0.00007695,0.00005391,-0.00002261,-0.00000537,-
 0.00001387,0.00000425,-0.00001656,0.00001010,-0.00006928,-0.00001207,0
 .00002758,0.00009422,0.00006267,-0.00006329,0.00000480,0.00008349,0.00
 003533,0.00026526,0.00025495,-0.00026313,-0.00003260,-0.00010755,0.000
 05287,0.00017090,0.00000476,-0.00018923,0.00004404,0.00000173,0.000057
 32,0.00009725,0.00002321,-0.00009213,0.00004453,0.00005304,-0.00000856
 ,-0.00004194,-0.00005634,0.00006176,0.00002020,0.00000561,-0.00003491,
 0.00008586,0.00006181,0.00003159,-0.00006154,-0.00007220,0.00001371,0.
 00021955,0.00000873,-0.00005267,-0.00010094,0.00025611,0.00006954,-0.0
 0002019,-0.00011313,0.00008042,0.00005746,0.00006159,0.00006655,-0.000
 01329,-0.00000348,-0.00015228,0.00000441,-0.00008885,0.00000023,0.0397
 0032,-0.13517497,0.04968062\\0.00002166,-0.00001274,0.00000649,-0.0000
 1077,0.00000214,0.00000078,0.00000923,0.00000944,0.00000741,0.00000513
 ,0.00000054,-0.00000038,-0.00000067,-0.00000215,0.00000423,0.00000346,
 -0.00000003,0.00000418,-0.00000883,0.00002371,0.00002514,0.00000148,0.
 00000160,0.00000228,0.00000109,0.00000117,0.00000096,-0.00000132,0.000
 00285,0.00000148,-0.00001520,0.00000183,0.00000016,0.00001417,-0.00000
 775,-0.00000447,0.00000247,-0.00000281,-0.00000339,-0.00000003,-0.0000
 0475,-0.00000865,0.00000397,-0.00000329,-0.00000131,0.00000743,-0.0000
 0496,0.00001534,-0.00000104,0.00000179,-0.00000016,-0.00003982,-0.0000
 0638,-0.00001060,-0.00001397,0.00000852,-0.00000750,0.00000030,0.00000
 824,0.00000784,0.00000081,0.00000105,-0.00000039,0.00000737,0.00000560
 ,-0.00001042,0.00001510,-0.00000020,-0.00000875,0.00000337,-0.00000213
 ,-0.00000697,0.00000558,-0.00000372,-0.00000300,0.00000160,-0.00000796
 ,-0.00000432,0.00000063,0.00000265,0.00000655,-0.00000349,-0.00000681,
 -0.00000215,0.00000157,0.00000562,0.00000697,0.00000243,-0.00000304,-0
 .00000555,0.00000259,-0.00000054,-0.00000301,0.00000471,0.00000327,-0.
 00000352,0.00000079,0.00000007,0.00000078,0.00000315,-0.00000458,-0.00
 000288,0.00000219,-0.00000052,-0.00000048,0.00004157,-0.00000269,-0.00
 001109,-0.00001623,-0.00000116,0.00000780,-0.00000228,0.00000546,0.000
 00310,-0.00000491,0.00000081,-0.00000257,-0.00000080,0.00000056,-0.000
 00184,-0.00000394,0.00000125,-0.00000108,0.00000138,0.00000266,-0.0000
 0213,-0.00000126,0.00000015,-0.00000177,0.00000092,0.00000073,-0.00000
 314,0.00000152,-0.00000212,-0.00000130,0.00000212,0.00000115,0.0000027
 1,-0.00000073,0.00000003,0.00000275,-0.00000018,-0.00000124,-0.0000019
 2,-0.00000266,-0.00000110,-0.00000058,-0.00000326,-0.00000424,0.000000
 16,0.00000047,0.00000037,-0.00000052,-0.00000170,-0.00000228,-0.000004
 71,0.00000016,-0.00000062,0.00000051,-0.00000183,0.00000270,0.00000106
 ,-0.00000124,-0.00000209,0.00000353,0.00000048,-0.00000068,0.00000401,
 -0.00000350,-0.00000001,0.00000200,-0.00000058,-0.00000202,0.00000128,
 -0.00000079,-0.00000210,0.00000244,-0.00000328,-0.00000031,0.00000271,
 -0.00000532,-0.00000427,0.00000053,-0.00000205,0.00000088,-0.00000530,
 -0.00001921,0.00000442,0.00000065\\\@


  THE LARGE PRINT GIVETH,
  AND THE SMALL PRINT TAKETH AWAY.

                     -- TOM WAITS
 Job cpu time:       0 days 18 hours  6 minutes 54.9 seconds.
 Elapsed time:       0 days  1 hours  7 minutes 59.9 seconds.
 File lengths (MBytes):  RWF=   2077 Int=      0 D2E=      0 Chk=     30 Scr=      1
 Normal termination of Gaussian 16 at Fri Nov  9 11:38:53 2018.
