 Entering Gaussian System, Link 0=g16
 Initial command:
 /cluster/chemistry/gaussian/g16/l1.exe "/scratch/js1212.15145/scratch/Gau-11680.inp" -scrdir="/scratch/js1212.15145/scratch/"
 Entering Link 1 = /cluster/chemistry/gaussian/g16/l1.exe PID=     11681.
  
 Copyright (c) 1988,1990,1992,1993,1995,1998,2003,2009,2016,
            Gaussian, Inc.  All Rights Reserved.
  
 This is part of the Gaussian(R) 16 program.  It is based on
 the Gaussian(R) 09 system (copyright 2009, Gaussian, Inc.),
 the Gaussian(R) 03 system (copyright 2003, Gaussian, Inc.),
 the Gaussian(R) 98 system (copyright 1998, Gaussian, Inc.),
 the Gaussian(R) 94 system (copyright 1995, Gaussian, Inc.),
 the Gaussian 92(TM) system (copyright 1992, Gaussian, Inc.),
 the Gaussian 90(TM) system (copyright 1990, Gaussian, Inc.),
 the Gaussian 88(TM) system (copyright 1988, Gaussian, Inc.),
 the Gaussian 86(TM) system (copyright 1986, Carnegie Mellon
 University), and the Gaussian 82(TM) system (copyright 1983,
 Carnegie Mellon University). Gaussian is a federally registered
 trademark of Gaussian, Inc.
  
 This software contains proprietary and confidential information,
 including trade secrets, belonging to Gaussian, Inc.
  
 This software is provided under written license and may be
 used, copied, transmitted, or stored only in accord with that
 written license.
  
 The following legend is applicable only to US Government
 contracts under FAR:
  
                    RESTRICTED RIGHTS LEGEND
  
 Use, reproduction and disclosure by the US Government is
 subject to restrictions as set forth in subparagraphs (a)
 and (c) of the Commercial Computer Software - Restricted
 Rights clause in FAR 52.227-19.
  
 Gaussian, Inc.
 340 Quinnipiac St., Bldg. 40, Wallingford CT 06492
  
  
 ---------------------------------------------------------------
 Warning -- This program may not be used in any manner that
 competes with the business of Gaussian, Inc. or will provide
 assistance to any competitor of Gaussian, Inc.  The licensee
 of this program is prohibited from giving any competitor of
 Gaussian, Inc. access to this program.  By using this program,
 the user acknowledges that Gaussian, Inc. is engaged in the
 business of creating and licensing software in the field of
 computational chemistry and represents and warrants to the
 licensee that it is not a competitor of Gaussian, Inc. and that
 it will not use this program in any manner prohibited above.
 ---------------------------------------------------------------
  

 Cite this work as:
 Gaussian 16, Revision A.03,
 M. J. Frisch, G. W. Trucks, H. B. Schlegel, G. E. Scuseria, 
 M. A. Robb, J. R. Cheeseman, G. Scalmani, V. Barone, 
 G. A. Petersson, H. Nakatsuji, X. Li, M. Caricato, A. V. Marenich, 
 J. Bloino, B. G. Janesko, R. Gomperts, B. Mennucci, H. P. Hratchian, 
 J. V. Ortiz, A. F. Izmaylov, J. L. Sonnenberg, D. Williams-Young, 
 F. Ding, F. Lipparini, F. Egidi, J. Goings, B. Peng, A. Petrone, 
 T. Henderson, D. Ranasinghe, V. G. Zakrzewski, J. Gao, N. Rega, 
 G. Zheng, W. Liang, M. Hada, M. Ehara, K. Toyota, R. Fukuda, 
 J. Hasegawa, M. Ishida, T. Nakajima, Y. Honda, O. Kitao, H. Nakai, 
 T. Vreven, K. Throssell, J. A. Montgomery, Jr., J. E. Peralta, 
 F. Ogliaro, M. J. Bearpark, J. J. Heyd, E. N. Brothers, K. N. Kudin, 
 V. N. Staroverov, T. A. Keith, R. Kobayashi, J. Normand, 
 K. Raghavachari, A. P. Rendell, J. C. Burant, S. S. Iyengar, 
 J. Tomasi, M. Cossi, J. M. Millam, M. Klene, C. Adamo, R. Cammi, 
 J. W. Ochterski, R. L. Martin, K. Morokuma, O. Farkas, 
 J. B. Foresman, and D. J. Fox, Gaussian, Inc., Wallingford CT, 2016.
 
 ******************************************
 Gaussian 16:  ES64L-G16RevA.03 25-Dec-2016
                11-Nov-2018 
 ******************************************
 %rwf=/scratch/js1212.15145/2-Full-Trans-A-GPNMR-NoSpin.rwf
 %nosave
 %nprocshared=16
 Will use up to   16 processors via shared memory.
 %mem=3000MB
 %chk=/scratch/js1212.15145/2-Full-Trans-A-GPOF.chk
 ----------------------------------------------------------------------
 # nmr genecp pbe1pbe EmpiricalDispersion=GD3BJ scrf=(SMD,solvent=water
 ) geom=allcheck
 ----------------------------------------------------------------------
 1/29=7,38=1,172=1/1;
 2/12=2,40=1/2;
 3/5=7,11=2,14=-4,16=1,17=8,25=1,30=1,70=32201,72=1,74=-13,124=41/1,2,3,8;
 4//1;
 5/5=2,38=5,53=1/2;
 8/6=1,10=90,11=11/1;
 10/13=100,45=16/2;
 6/7=2,8=2,9=2,10=2,28=1/1;
 99/9=1/99;
 Structure from the checkpoint file:  "/scratch/js1212.15145/2-Full-Trans-A-GPOF.chk"
 -------------------
 Title Card Required
 -------------------
 Charge =  0 Multiplicity = 1
 Redundant internal coordinates found in file.  (old form).
 N,0,-0.7939372714,1.4223725821,-0.0331774301
 C,0,-2.0069811701,1.8457005099,0.344644741
 C,0,0.0955503074,2.2520717997,-0.6015751566
 C,0,-2.3930296391,3.1696287905,0.1742555401
 C,0,-1.4771747833,4.0571504883,-0.3880232311
 C,0,-0.2227476723,3.5990006074,-0.77767886
 C,0,-2.8308880779,0.7837489969,1.0039710102
 H,0,-3.3871307209,3.4969901565,0.4802248721
 H,0,-1.7451500279,5.1058631395,-0.5296985242
 H,0,0.5051949813,4.2733533482,-1.2297873908
 C,0,1.3856015865,1.6328648322,-1.0399609473
 N,0,-2.6753317314,-0.5235074791,0.3341385024
 H,0,-3.8894234397,1.0874326117,1.0734131669
 H,0,-2.4459661554,0.6560755003,2.0288125797
 H,0,1.2077614689,1.2450548577,-2.0586107541
 P,0,1.7293646219,0.067065238,-0.0764247359
 H,0,2.2083076187,2.36178162,-1.0591354344
 Ru,0,-0.4058509953,-0.6358704491,0.1224641673
 C,0,-3.3194777926,-0.5154976241,-1.001027499
 C,0,2.9842252617,-0.8448485227,-1.1759672409
 C,0,-3.242113421,-1.5496807646,1.2390148458
 C,0,2.5735599458,0.6514615299,1.5271766665
 C,0,2.1869749652,-1.5753390011,-2.2613946785
 C,0,3.7438332517,-1.8936821427,-0.3614174163
 C,0,3.9656594203,0.1120288863,-1.8582083664
 C,0,1.6736126426,1.7317041012,2.1368644455
 C,0,3.9663681116,1.2456636327,1.3247080563
 C,0,2.6253000693,-0.5230432872,2.5081899426
 H,0,-0.3831263868,-0.5654726032,1.7442942789
 H,0,-2.7241021658,0.1618833762,-1.6297839498
 C,0,-4.8053769685,-0.1954805235,-1.0358097866
 H,0,-3.1351340756,-1.5063344356,-1.4345935398
 H,0,-2.5972584848,-1.5475380696,2.1294730312
 C,0,-3.3037485543,-2.9427475615,0.6511004484
 H,0,-4.2559099715,-1.2380743657,1.5601136517
 C,0,0.0218192035,-2.3972431089,0.3289517229
 O,0,-0.6258336225,-0.3575889911,-2.0109106546
 H,0,-0.6813150048,-1.2277124498,-2.4213112733
 H,0,-2.3322854441,-3.2418038053,0.2348267404
 H,0,-4.0660289267,-3.0356213948,-0.1362243834
 H,0,-3.5638993289,-3.6556142029,1.4473090098
 H,0,-5.1605876945,-0.299471729,-2.0721652574
 H,0,-5.0296492058,0.8367739419,-0.7262955094
 H,0,-5.4086272697,-0.8758916462,-0.4142347514
 H,0,2.8931214479,-1.9716736121,-3.0102599736
 H,0,1.451690848,-0.9197193336,-2.7491238047
 H,0,1.6291756929,-2.4195305405,-1.833596823
 H,0,4.3265843515,-2.5219458188,-1.0556864728
 H,0,3.0565896995,-2.5569264702,0.1846658702
 H,0,4.4513114018,-1.4530384971,0.3544448879
 H,0,4.6880111603,-0.4812666399,-2.4436823225
 H,0,4.5389371171,0.7258382929,-1.1522379016
 H,0,3.4533843809,0.7818767884,-2.564125339
 H,0,4.7008544186,0.5040428802,0.9833365129
 H,0,4.3285381256,1.6435210595,2.2877573866
 H,0,3.9609345578,2.0832607582,0.6097785334
 H,0,3.3094785736,-1.3173749803,2.1837225091
 H,0,1.6230943638,-0.9577528191,2.6356177035
 H,0,2.9768372202,-0.1588067459,3.4881698472
 H,0,2.0763385862,2.0086766526,3.1252622247
 H,0,0.6481012047,1.3596452546,2.2714256179
 H,0,1.6439876905,2.6465961766,1.5257929084
 O,0,0.3501517054,-3.5048387945,0.4953479872
 Recover connectivity data from disk.
                           ----------------------------
                           !    Current Parameters    !
                           ! (Angstroms and Degrees)  !
 --------------------------                            --------------------------
 ! Name  Definition              Value                                          !
 --------------------------------------------------------------------------------
 ! R1    R(1,2)                  1.3392                                         !
 ! R2    R(1,3)                  1.3426                                         !
 ! R3    R(1,18)                 2.1003                                         !
 ! R4    R(2,4)                  1.3896                                         !
 ! R5    R(2,7)                  1.4971                                         !
 ! R6    R(3,6)                  1.3952                                         !
 ! R7    R(3,11)                 1.4966                                         !
 ! R8    R(4,5)                  1.3938                                         !
 ! R9    R(4,8)                  1.0904                                         !
 ! R10   R(5,6)                  1.3912                                         !
 ! R11   R(5,9)                  1.0916                                         !
 ! R12   R(6,10)                 1.0904                                         !
 ! R13   R(7,12)                 1.4771                                         !
 ! R14   R(7,13)                 1.1034                                         !
 ! R15   R(7,14)                 1.1022                                         !
 ! R16   R(11,15)                1.1044                                         !
 ! R17   R(11,16)                1.8704                                         !
 ! R18   R(11,17)                1.0993                                         !
 ! R19   R(12,19)                1.4824                                         !
 ! R20   R(12,21)                1.4809                                         !
 ! R21   R(16,18)                2.2567                                         !
 ! R22   R(16,20)                1.9014                                         !
 ! R23   R(16,22)                1.9041                                         !
 ! R24   R(18,29)                1.6235                                         !
 ! R25   R(18,36)                1.8243                                         !
 ! R26   R(18,37)                2.1627                                         !
 ! R27   R(19,30)                1.0994                                         !
 ! R28   R(19,31)                1.5204                                         !
 ! R29   R(19,32)                1.0971                                         !
 ! R30   R(20,23)                1.5321                                         !
 ! R31   R(20,24)                1.5299                                         !
 ! R32   R(20,25)                1.5311                                         !
 ! R33   R(21,33)                1.0994                                         !
 ! R34   R(21,34)                1.5133                                         !
 ! R35   R(21,35)                1.1081                                         !
 ! R36   R(22,26)                1.5325                                         !
 ! R37   R(22,27)                1.5277                                         !
 ! R38   R(22,28)                1.5312                                         !
 ! R39   R(23,45)                1.103                                          !
 ! R40   R(23,46)                1.0993                                         !
 ! R41   R(23,47)                1.0985                                         !
 ! R42   R(24,48)                1.1029                                         !
 ! R43   R(24,49)                1.1002                                         !
 ! R44   R(24,50)                1.0987                                         !
 ! R45   R(25,51)                1.103                                          !
 ! R46   R(25,52)                1.0972                                         !
 ! R47   R(25,53)                1.0997                                         !
 ! R48   R(26,60)                1.1026                                         !
 ! R49   R(26,61)                1.0992                                         !
 ! R50   R(26,62)                1.1006                                         !
 ! R51   R(27,54)                1.0982                                         !
 ! R52   R(27,55)                1.1031                                         !
 ! R53   R(27,56)                1.1012                                         !
 ! R54   R(28,57)                1.0974                                         !
 ! R55   R(28,58)                1.0998                                         !
 ! R56   R(28,59)                1.103                                          !
 ! R57   R(31,42)                1.1005                                         !
 ! R58   R(31,43)                1.1007                                         !
 ! R59   R(31,44)                1.1015                                         !
 ! R60   R(34,39)                1.0984                                         !
 ! R61   R(34,40)                1.0998                                         !
 ! R62   R(34,41)                1.0999                                         !
 ! R63   R(36,63)                1.1672                                         !
 ! R64   R(37,38)                0.9637                                         !
 ! A1    A(2,1,3)              121.6134                                         !
 ! A2    A(2,1,18)             117.1451                                         !
 ! A3    A(3,1,18)             120.9675                                         !
 ! A4    A(1,2,4)              121.214                                          !
 ! A5    A(1,2,7)              113.4857                                         !
 ! A6    A(4,2,7)              125.2364                                         !
 ! A7    A(1,3,6)              119.9262                                         !
 ! A8    A(1,3,11)             116.0649                                         !
 ! A9    A(6,3,11)             123.9943                                         !
 ! A10   A(2,4,5)              118.2688                                         !
 ! A11   A(2,4,8)              120.3255                                         !
 ! A12   A(5,4,8)              121.405                                          !
 ! A13   A(4,5,6)              119.7227                                         !
 ! A14   A(4,5,9)              120.1842                                         !
 ! A15   A(6,5,9)              120.0913                                         !
 ! A16   A(3,6,5)              119.229                                          !
 ! A17   A(3,6,10)             119.8062                                         !
 ! A18   A(5,6,10)             120.9588                                         !
 ! A19   A(2,7,12)             111.7225                                         !
 ! A20   A(2,7,13)             111.1273                                         !
 ! A21   A(2,7,14)             107.4262                                         !
 ! A22   A(12,7,13)            111.9096                                         !
 ! A23   A(12,7,14)            106.4016                                         !
 ! A24   A(13,7,14)            107.9627                                         !
 ! A25   A(3,11,15)            106.061                                          !
 ! A26   A(3,11,16)            110.7257                                         !
 ! A27   A(3,11,17)            112.0774                                         !
 ! A28   A(15,11,16)           102.1686                                         !
 ! A29   A(15,11,17)           109.7098                                         !
 ! A30   A(16,11,17)           115.247                                          !
 ! A31   A(7,12,19)            110.9704                                         !
 ! A32   A(7,12,21)            107.2096                                         !
 ! A33   A(19,12,21)           112.8156                                         !
 ! A34   A(11,16,18)            97.6006                                         !
 ! A35   A(11,16,20)           102.9968                                         !
 ! A36   A(11,16,22)           104.9753                                         !
 ! A37   A(18,16,20)           121.7364                                         !
 ! A38   A(18,16,22)           116.1583                                         !
 ! A39   A(20,16,22)           109.9751                                         !
 ! A40   A(1,18,16)             82.1285                                         !
 ! A41   A(1,18,29)             91.9554                                         !
 ! A42   A(1,18,37)             77.4086                                         !
 ! A43   A(16,18,29)            93.5139                                         !
 ! A44   A(16,18,36)            95.1009                                         !
 ! A45   A(16,18,37)            88.2363                                         !
 ! A46   A(29,18,36)            85.7283                                         !
 ! A47   A(36,18,37)           105.0547                                         !
 ! A48   A(12,19,30)           106.446                                          !
 ! A49   A(12,19,31)           116.5133                                         !
 ! A50   A(12,19,32)           106.1426                                         !
 ! A51   A(30,19,31)           112.7369                                         !
 ! A52   A(30,19,32)           103.8537                                         !
 ! A53   A(31,19,32)           110.1979                                         !
 ! A54   A(16,20,23)           107.1535                                         !
 ! A55   A(16,20,24)           110.4012                                         !
 ! A56   A(16,20,25)           112.3947                                         !
 ! A57   A(23,20,24)           107.9806                                         !
 ! A58   A(23,20,25)           108.4118                                         !
 ! A59   A(24,20,25)           110.3301                                         !
 ! A60   A(12,21,33)           105.608                                          !
 ! A61   A(12,21,34)           114.5878                                         !
 ! A62   A(12,21,35)           109.4111                                         !
 ! A63   A(33,21,34)           109.8974                                         !
 ! A64   A(33,21,35)           107.5394                                         !
 ! A65   A(34,21,35)           109.5218                                         !
 ! A66   A(16,22,26)           106.9198                                         !
 ! A67   A(16,22,27)           114.3275                                         !
 ! A68   A(16,22,28)           108.6105                                         !
 ! A69   A(26,22,27)           108.2968                                         !
 ! A70   A(26,22,28)           107.7968                                         !
 ! A71   A(27,22,28)           110.6369                                         !
 ! A72   A(20,23,45)           108.6138                                         !
 ! A73   A(20,23,46)           112.2119                                         !
 ! A74   A(20,23,47)           110.7765                                         !
 ! A75   A(45,23,46)           109.9569                                         !
 ! A76   A(45,23,47)           108.261                                          !
 ! A77   A(46,23,47)           106.9461                                         !
 ! A78   A(20,24,48)           108.5255                                         !
 ! A79   A(20,24,49)           111.556                                          !
 ! A80   A(20,24,50)           113.0583                                         !
 ! A81   A(48,24,49)           107.4042                                         !
 ! A82   A(48,24,50)           107.3604                                         !
 ! A83   A(49,24,50)           108.6997                                         !
 ! A84   A(20,25,51)           108.672                                          !
 ! A85   A(20,25,52)           113.4433                                         !
 ! A86   A(20,25,53)           111.598                                          !
 ! A87   A(51,25,52)           107.4744                                         !
 ! A88   A(51,25,53)           106.9762                                         !
 ! A89   A(52,25,53)           108.4003                                         !
 ! A90   A(22,26,60)           108.6143                                         !
 ! A91   A(22,26,61)           110.9768                                         !
 ! A92   A(22,26,62)           112.3877                                         !
 ! A93   A(60,26,61)           108.4239                                         !
 ! A94   A(60,26,62)           107.3805                                         !
 ! A95   A(61,26,62)           108.9189                                         !
 ! A96   A(22,27,54)           112.8479                                         !
 ! A97   A(22,27,55)           108.8983                                         !
 ! A98   A(22,27,56)           112.1708                                         !
 ! A99   A(54,27,55)           107.1788                                         !
 ! A100  A(54,27,56)           108.3691                                         !
 ! A101  A(55,27,56)           107.1015                                         !
 ! A102  A(22,28,57)           112.7583                                         !
 ! A103  A(22,28,58)           110.2807                                         !
 ! A104  A(22,28,59)           109.0687                                         !
 ! A105  A(57,28,58)           108.4374                                         !
 ! A106  A(57,28,59)           107.6385                                         !
 ! A107  A(58,28,59)           108.5422                                         !
 ! A108  A(19,31,42)           108.4888                                         !
 ! A109  A(19,31,43)           112.9596                                         !
 ! A110  A(19,31,44)           113.0995                                         !
 ! A111  A(42,31,43)           106.7177                                         !
 ! A112  A(42,31,44)           107.2347                                         !
 ! A113  A(43,31,44)           108.0008                                         !
 ! A114  A(21,34,39)           111.2138                                         !
 ! A115  A(21,34,40)           112.5867                                         !
 ! A116  A(21,34,41)           108.9671                                         !
 ! A117  A(39,34,40)           108.5851                                         !
 ! A118  A(39,34,41)           107.8827                                         !
 ! A119  A(40,34,41)           107.4304                                         !
 ! A120  A(18,37,38)           108.0462                                         !
 ! A121  L(1,18,36,16,-1)      177.2294                                         !
 ! A122  L(29,18,37,1,-1)      169.364                                          !
 ! A123  L(18,36,63,20,-1)     178.0583                                         !
 ! A124  L(1,18,36,16,-2)      177.5091                                         !
 ! A125  L(29,18,37,1,-2)      183.2238                                         !
 ! A126  L(18,36,63,20,-2)     177.233                                          !
 ! D1    D(3,1,2,4)             -0.5778                                         !
 ! D2    D(3,1,2,7)           -177.8191                                         !
 ! D3    D(18,1,2,4)          -174.618                                          !
 ! D4    D(18,1,2,7)             8.1407                                         !
 ! D5    D(2,1,3,6)              1.7368                                         !
 ! D6    D(2,1,3,11)          -176.9281                                         !
 ! D7    D(18,1,3,6)           175.551                                          !
 ! D8    D(18,1,3,11)           -3.1139                                         !
 ! D9    D(2,1,18,16)         -163.6716                                         !
 ! D10   D(2,1,18,29)          -70.3931                                         !
 ! D11   D(2,1,18,37)          106.3831                                         !
 ! D12   D(3,1,18,16)           22.2474                                         !
 ! D13   D(3,1,18,29)          115.5259                                         !
 ! D14   D(3,1,18,37)          -67.698                                          !
 ! D15   D(1,2,4,5)             -0.7612                                         !
 ! D16   D(1,2,4,8)            179.5343                                         !
 ! D17   D(7,2,4,5)            176.1408                                         !
 ! D18   D(7,2,4,8)             -3.5637                                         !
 ! D19   D(1,2,7,12)           -40.2193                                         !
 ! D20   D(1,2,7,13)          -165.9913                                         !
 ! D21   D(1,2,7,14)            76.1162                                         !
 ! D22   D(4,2,7,12)           142.6694                                         !
 ! D23   D(4,2,7,13)            16.8974                                         !
 ! D24   D(4,2,7,14)          -100.9952                                         !
 ! D25   D(1,3,6,5)             -1.532                                          !
 ! D26   D(1,3,6,10)           179.3464                                         !
 ! D27   D(11,3,6,5)           177.0214                                         !
 ! D28   D(11,3,6,10)           -2.1002                                         !
 ! D29   D(1,3,11,15)           86.3627                                         !
 ! D30   D(1,3,11,16)          -23.7253                                         !
 ! D31   D(1,3,11,17)         -153.935                                          !
 ! D32   D(6,3,11,15)          -92.2417                                         !
 ! D33   D(6,3,11,16)          157.6704                                         !
 ! D34   D(6,3,11,17)           27.4607                                         !
 ! D35   D(2,4,5,6)              0.912                                          !
 ! D36   D(2,4,5,9)           -179.5726                                         !
 ! D37   D(8,4,5,6)           -179.3868                                         !
 ! D38   D(8,4,5,9)              0.1285                                         !
 ! D39   D(4,5,6,3)              0.205                                          !
 ! D40   D(4,5,6,10)           179.3162                                         !
 ! D41   D(9,5,6,3)           -179.3108                                         !
 ! D42   D(9,5,6,10)            -0.1997                                         !
 ! D43   D(2,7,12,19)          -70.2021                                         !
 ! D44   D(2,7,12,21)          166.194                                          !
 ! D45   D(13,7,12,19)          55.1384                                         !
 ! D46   D(13,7,12,21)         -68.4655                                         !
 ! D47   D(14,7,12,19)         172.8415                                         !
 ! D48   D(14,7,12,21)          49.2376                                         !
 ! D49   D(3,11,16,18)          35.0096                                         !
 ! D50   D(3,11,16,20)         160.139                                          !
 ! D51   D(3,11,16,22)         -84.732                                          !
 ! D52   D(15,11,16,18)        -77.5841                                         !
 ! D53   D(15,11,16,20)         47.5454                                         !
 ! D54   D(15,11,16,22)        162.6743                                         !
 ! D55   D(17,11,16,18)        163.5259                                         !
 ! D56   D(17,11,16,20)        -71.3446                                         !
 ! D57   D(17,11,16,22)         43.7843                                         !
 ! D58   D(7,12,19,30)          68.3615                                         !
 ! D59   D(7,12,19,31)         -58.3375                                         !
 ! D60   D(7,12,19,32)         178.5644                                         !
 ! D61   D(21,12,19,30)       -171.308                                          !
 ! D62   D(21,12,19,31)         61.9929                                         !
 ! D63   D(21,12,19,32)        -61.1052                                         !
 ! D64   D(7,12,21,33)         -65.135                                          !
 ! D65   D(7,12,21,34)         173.7719                                         !
 ! D66   D(7,12,21,35)          50.3449                                         !
 ! D67   D(19,12,21,33)        172.4015                                         !
 ! D68   D(19,12,21,34)         51.3084                                         !
 ! D69   D(19,12,21,35)        -72.1186                                         !
 ! D70   D(11,16,18,1)         -27.0557                                         !
 ! D71   D(11,16,18,29)       -118.5468                                         !
 ! D72   D(11,16,18,36)        155.4352                                         !
 ! D73   D(11,16,18,37)         50.4749                                         !
 ! D74   D(20,16,18,1)        -137.5009                                         !
 ! D75   D(20,16,18,29)        131.0081                                         !
 ! D76   D(20,16,18,36)         44.99                                           !
 ! D77   D(20,16,18,37)        -59.9702                                         !
 ! D78   D(22,16,18,1)          83.7977                                         !
 ! D79   D(22,16,18,29)         -7.6934                                         !
 ! D80   D(22,16,18,36)        -93.7114                                         !
 ! D81   D(22,16,18,37)        161.3284                                         !
 ! D82   D(11,16,20,23)        -82.1112                                         !
 ! D83   D(11,16,20,24)        160.535                                          !
 ! D84   D(11,16,20,25)         36.8815                                         !
 ! D85   D(18,16,20,23)         25.4883                                         !
 ! D86   D(18,16,20,24)        -91.8655                                         !
 ! D87   D(18,16,20,25)        144.481                                          !
 ! D88   D(22,16,20,23)        166.4157                                         !
 ! D89   D(22,16,20,24)         49.0618                                         !
 ! D90   D(22,16,20,25)        -74.5916                                         !
 ! D91   D(11,16,22,26)         52.0564                                         !
 ! D92   D(11,16,22,27)        -67.7881                                         !
 ! D93   D(11,16,22,28)        168.1307                                         !
 ! D94   D(18,16,22,26)        -54.4377                                         !
 ! D95   D(18,16,22,27)       -174.2822                                         !
 ! D96   D(18,16,22,28)         61.6365                                         !
 ! D97   D(20,16,22,26)        162.234                                          !
 ! D98   D(20,16,22,27)         42.3894                                         !
 ! D99   D(20,16,22,28)        -81.6918                                         !
 ! D100  D(1,18,37,38)        -168.7797                                         !
 ! D101  D(16,18,37,38)        108.8931                                         !
 ! D102  D(36,18,37,38)         14.0842                                         !
 ! D103  D(12,19,31,42)       -175.7946                                         !
 ! D104  D(12,19,31,43)         66.102                                          !
 ! D105  D(12,19,31,44)        -56.9613                                         !
 ! D106  D(30,19,31,42)         60.6939                                         !
 ! D107  D(30,19,31,43)        -57.4095                                         !
 ! D108  D(30,19,31,44)        179.5272                                         !
 ! D109  D(32,19,31,42)        -54.8244                                         !
 ! D110  D(32,19,31,43)       -172.9278                                         !
 ! D111  D(32,19,31,44)         64.0089                                         !
 ! D112  D(16,20,23,45)        170.5959                                         !
 ! D113  D(16,20,23,46)         48.8233                                         !
 ! D114  D(16,20,23,47)        -70.6259                                         !
 ! D115  D(24,20,23,45)        -70.475                                          !
 ! D116  D(24,20,23,46)        167.7524                                         !
 ! D117  D(24,20,23,47)         48.3032                                         !
 ! D118  D(25,20,23,45)         49.0635                                         !
 ! D119  D(25,20,23,46)        -72.709                                          !
 ! D120  D(25,20,23,47)        167.8417                                         !
 ! D121  D(16,20,24,48)        170.0051                                         !
 ! D122  D(16,20,24,49)         51.8699                                         !
 ! D123  D(16,20,24,50)        -71.0052                                         !
 ! D124  D(23,20,24,48)         53.163                                          !
 ! D125  D(23,20,24,49)        -64.9722                                         !
 ! D126  D(23,20,24,50)        172.1527                                         !
 ! D127  D(25,20,24,48)        -65.1551                                         !
 ! D128  D(25,20,24,49)        176.7097                                         !
 ! D129  D(25,20,24,50)         53.8346                                         !
 ! D130  D(16,20,25,51)        177.6622                                         !
 ! D131  D(16,20,25,52)         58.1886                                         !
 ! D132  D(16,20,25,53)        -64.6112                                         !
 ! D133  D(23,20,25,51)        -64.0846                                         !
 ! D134  D(23,20,25,52)        176.4418                                         !
 ! D135  D(23,20,25,53)         53.642                                          !
 ! D136  D(24,20,25,51)         53.9691                                         !
 ! D137  D(24,20,25,52)        -65.5045                                         !
 ! D138  D(24,20,25,53)        171.6957                                         !
 ! D139  D(12,21,34,39)         51.1313                                         !
 ! D140  D(12,21,34,40)        -70.9922                                         !
 ! D141  D(12,21,34,41)        169.928                                          !
 ! D142  D(33,21,34,39)        -67.5728                                         !
 ! D143  D(33,21,34,40)        170.3037                                         !
 ! D144  D(33,21,34,41)         51.2239                                         !
 ! D145  D(35,21,34,39)        174.4988                                         !
 ! D146  D(35,21,34,40)         52.3753                                         !
 ! D147  D(35,21,34,41)        -66.7045                                         !
 ! D148  D(16,22,26,60)        173.6084                                         !
 ! D149  D(16,22,26,61)         54.511                                          !
 ! D150  D(16,22,26,62)        -67.7298                                         !
 ! D151  D(27,22,26,60)        -62.7426                                         !
 ! D152  D(27,22,26,61)        178.1601                                         !
 ! D153  D(27,22,26,62)         55.9193                                         !
 ! D154  D(28,22,26,60)         56.9938                                         !
 ! D155  D(28,22,26,61)        -62.1035                                         !
 ! D156  D(28,22,26,62)        175.6557                                         !
 ! D157  D(16,22,27,54)        -66.6747                                         !
 ! D158  D(16,22,27,55)        174.4433                                         !
 ! D159  D(16,22,27,56)         56.0749                                         !
 ! D160  D(26,22,27,54)        174.2546                                         !
 ! D161  D(26,22,27,55)         55.3726                                         !
 ! D162  D(26,22,27,56)        -62.9958                                         !
 ! D163  D(28,22,27,54)         56.3164                                         !
 ! D164  D(28,22,27,55)        -62.5656                                         !
 ! D165  D(28,22,27,56)        179.066                                          !
 ! D166  D(16,22,28,57)         68.6478                                         !
 ! D167  D(16,22,28,58)        -52.7286                                         !
 ! D168  D(16,22,28,59)       -171.8353                                         !
 ! D169  D(26,22,28,57)       -175.8454                                         !
 ! D170  D(26,22,28,58)         62.7783                                         !
 ! D171  D(26,22,28,59)        -56.3284                                         !
 ! D172  D(27,22,28,57)        -57.6019                                         !
 ! D173  D(27,22,28,58)       -178.9782                                         !
 ! D174  D(27,22,28,59)         61.9151                                         !
 --------------------------------------------------------------------------------
 Stoichiometry    C20H37N2O2PRu
 Framework group  C1[X(C20H37N2O2PRu)]
 Deg. of freedom   183
 Full point group                 C1      NOp   1
 Largest Abelian subgroup         C1      NOp   1
 Largest concise Abelian subgroup C1      NOp   1
                         Standard orientation:                         
 ---------------------------------------------------------------------
 Center     Atomic      Atomic             Coordinates (Angstroms)
 Number     Number       Type             X           Y           Z
 ---------------------------------------------------------------------
      1          7           0       -0.800079    1.422012   -0.041372
      2          6           0       -2.015293    1.842050    0.333136
      3          6           0        0.087098    2.253074   -0.611386
      4          6           0       -2.406121    3.163885    0.157470
      5          6           0       -1.492806    4.052891   -0.406592
      6          6           0       -0.236060    3.598147   -0.792747
      7          6           0       -2.836142    0.779311    0.995001
      8          1           0       -3.401920    3.488538    0.460792
      9          1           0       -1.764558    5.100066   -0.552391
     10          1           0        0.489990    4.273662   -1.246163
     11          6           0        1.380154    1.637238   -1.045646
     12          7           0       -2.674604   -0.529710    0.330049
     13          1           0       -3.895929    1.079202    1.061786
     14          1           0       -2.452279    0.656741    2.020862
     15          1           0        1.205324    1.245143   -2.063176
     16         15           0        1.728425    0.076187   -0.076043
     17          1           0        2.200108    2.369213   -1.066183
     18         44           0       -0.404396   -0.634172    0.122158
     19          6           0       -3.316767   -0.528891   -1.006096
     20          6           0        2.988400   -0.834830   -1.170467
     21          6           0       -3.238836   -1.554821    1.237719
     22          6           0        2.567977    0.669480    1.526729
     23          6           0        2.195570   -1.572199   -2.254481
     24          6           0        3.750769   -1.877866   -0.351066
     25          6           0        3.967210    0.123355   -1.854639
     26          6           0        1.663008    1.748440    2.131234
     27          6           0        3.958816    1.268265    1.324228
     28          6           0        2.622711   -0.501332    2.511984
     29          1           0       -0.384379   -0.557937    1.743760
     30          1           0       -2.723029    0.148521   -1.636366
     31          6           0       -4.803819   -0.214665   -1.044230
     32          1           0       -3.128001   -1.520549   -1.435864
     33          1           0       -2.595334   -1.547063    2.129124
     34          6           0       -3.294284   -2.950189    0.654665
     35          1           0       -4.254293   -1.245944    1.556197
     36          6           0        0.029664   -2.393158    0.335538
     37          8           0       -0.622227   -0.364299   -2.012517
     38          1           0       -0.673779   -1.236077   -2.419907
     39          1           0       -2.321065   -3.247014    0.240905
     40          1           0       -4.055020   -3.048759   -0.133460
     41          1           0       -3.552917   -3.661214    1.453012
     42          1           0       -5.157072   -0.323684   -2.080738
     43          1           0       -5.032484    0.817818   -0.738719
     44          1           0       -5.405410   -0.895162   -0.421142
     45          1           0        2.904345   -1.968492   -3.000880
     46          1           0        1.458530   -0.921121   -2.745631
     47          1           0        1.640345   -2.416988   -1.824519
     48          1           0        4.336951   -2.506362   -1.042229
     49          1           0        3.065234   -2.541784    0.196345
     50          1           0        4.455487   -1.431993    0.364281
     51          1           0        4.692695   -0.469255   -2.436925
     52          1           0        4.537085    0.741845   -1.150000
     53          1           0        3.453452    0.788738   -2.563694
     54          1           0        4.696633    0.528244    0.986588
     55          1           0        4.318020    1.670913    2.286397
     56          1           0        3.951270    2.103295    0.606320
     57          1           0        3.310396   -1.294196    2.191361
     58          1           0        1.621977   -0.939404    2.639461
     59          1           0        2.971385   -0.132285    3.491187
     60          1           0        2.063190    2.030449    3.119241
     61          1           0        0.638719    1.372955    2.265587
     62          1           0        1.630820    2.661040    1.516873
     63          8           0        0.361959   -3.498898    0.506357
 ---------------------------------------------------------------------
 Rotational constants (GHZ):           0.2550716           0.1654647           0.1308229
 General basis read from cards:  (5D, 7F)
 ======================================================================================================
                                       Pseudopotential Parameters
 ======================================================================================================
  Center     Atomic      Valence      Angular      Power
  Number     Number     Electrons     Momentum     of R      Exponent        Coefficient   SO-Coeffient
 ======================================================================================================
    1          7
                                   No pseudopotential on this center.
    2          6
                                   No pseudopotential on this center.
    3          6
                                   No pseudopotential on this center.
    4          6
                                   No pseudopotential on this center.
    5          6
                                   No pseudopotential on this center.
    6          6
                                   No pseudopotential on this center.
    7          6
                                   No pseudopotential on this center.
    8          1
                                   No pseudopotential on this center.
    9          1
                                   No pseudopotential on this center.
   10          1
                                   No pseudopotential on this center.
   11          6
                                   No pseudopotential on this center.
   12          7
                                   No pseudopotential on this center.
   13          1
                                   No pseudopotential on this center.
   14          1
                                   No pseudopotential on this center.
   15          1
                                   No pseudopotential on this center.
   16         15
                                   No pseudopotential on this center.
   17          1
                                   No pseudopotential on this center.
   18         44           16
                                      G and up 
                                                     2        1.0000000        0.00000000    0.00000000
                                      S - G
                                                     2       11.1052690      209.82297100    0.00000000
                                                     2        5.4147450       30.65472600    0.00000000
                                      P - G
                                                     2        9.7712710      146.33618200    0.00000000
                                                     2        5.0739910       24.12787700    0.00000000
                                      D - G
                                                     2        7.6714230       67.51589700    0.00000000
                                                     2        4.1365650        9.87010400    0.00000000
                                      F - G
                                                     2       11.3600000      -28.34061600    0.00000000
                                                     2        5.6800000       -4.94462900    0.00000000
   19          6
                                   No pseudopotential on this center.
   20          6
                                   No pseudopotential on this center.
   21          6
                                   No pseudopotential on this center.
   22          6
                                   No pseudopotential on this center.
   23          6
                                   No pseudopotential on this center.
   24          6
                                   No pseudopotential on this center.
   25          6
                                   No pseudopotential on this center.
   26          6
                                   No pseudopotential on this center.
   27          6
                                   No pseudopotential on this center.
   28          6
                                   No pseudopotential on this center.
   29          1
                                   No pseudopotential on this center.
   30          1
                                   No pseudopotential on this center.
   31          6
                                   No pseudopotential on this center.
   32          1
                                   No pseudopotential on this center.
   33          1
                                   No pseudopotential on this center.
   34          6
                                   No pseudopotential on this center.
   35          1
                                   No pseudopotential on this center.
   36          6
                                   No pseudopotential on this center.
   37          8
                                   No pseudopotential on this center.
   38          1
                                   No pseudopotential on this center.
   39          1
                                   No pseudopotential on this center.
   40          1
                                   No pseudopotential on this center.
   41          1
                                   No pseudopotential on this center.
   42          1
                                   No pseudopotential on this center.
   43          1
                                   No pseudopotential on this center.
   44          1
                                   No pseudopotential on this center.
   45          1
                                   No pseudopotential on this center.
   46          1
                                   No pseudopotential on this center.
   47          1
                                   No pseudopotential on this center.
   48          1
                                   No pseudopotential on this center.
   49          1
                                   No pseudopotential on this center.
   50          1
                                   No pseudopotential on this center.
   51          1
                                   No pseudopotential on this center.
   52          1
                                   No pseudopotential on this center.
   53          1
                                   No pseudopotential on this center.
   54          1
                                   No pseudopotential on this center.
   55          1
                                   No pseudopotential on this center.
   56          1
                                   No pseudopotential on this center.
   57          1
                                   No pseudopotential on this center.
   58          1
                                   No pseudopotential on this center.
   59          1
                                   No pseudopotential on this center.
   60          1
                                   No pseudopotential on this center.
   61          1
                                   No pseudopotential on this center.
   62          1
                                   No pseudopotential on this center.
   63          8
                                   No pseudopotential on this center.
 ======================================================================================================
 There are  1473 symmetry adapted cartesian basis functions of A   symmetry.
 There are  1308 symmetry adapted basis functions of A   symmetry.
  1308 basis functions,  2037 primitive gaussians,  1473 cartesian basis functions
   109 alpha electrons      109 beta electrons
       nuclear repulsion energy      3252.2010959179 Hartrees.
 NAtoms=   63 NActive=   63 NUniq=   63 SFac= 1.00D+00 NAtFMM=   60 NAOKFM=T Big=T
 Integral buffers will be    131072 words long.
 Raffenetti 2 integral format.
 Two-electron integral symmetry is turned on.
 Nuclear repulsion after empirical dispersion term =     3252.1070473955 Hartrees.
 ------------------------------------------------------------------------------
 Polarizable Continuum Model (PCM)
 =================================
 Model                : PCM.
 Atomic radii         : SMD-Coulomb.
 Polarization charges : Total charges.
 Charge compensation  : None.
 Solution method      : On-the-fly selection.
 Cavity type          : VdW (van der Waals Surface) (Alpha=1.000).
 Cavity algorithm     : GePol (No added spheres)
                        Default sphere list used, NSphG=   63.
                        Lebedev-Laikov grids with approx.  5.0 points / Ang**2.
                        Smoothing algorithm: York/Karplus (Gamma=1.0000).
                        Polarization charges: spherical gaussians, with
                                              point-specific exponents (IZeta= 3).
                        Self-potential: point-specific (ISelfS= 7).
                        Self-field    : sphere-specific E.n sum rule (ISelfD= 2).
 Solvent              : Water, Eps=  78.355300 Eps(inf)=   1.777849
 ------------------------------------------------------------------------------
 ------------------------------------------------------------------------------
 Atomic radii for non-electrostatic terms: SMD-CDS.
 ------------------------------------------------------------------------------
 Nuclear repulsion after PCM non-electrostatic terms =     3252.1248000982 Hartrees.
 One-electron integrals computed using PRISM.
   1 Symmetry operations used in ECPInt.
 ECPInt:  NShTT=  119316 NPrTT=  422118 LenC2=  102897 LenP2D=  239434.
 LDataN:  DoStor=T MaxTD1= 7 Len=  274
 Number of processors reduced to  11 by ecpmxn.
 NBasis=  1308 RedAO= T EigKep=  3.93D-05  NBF=  1308
 NBsUse=  1308 1.00D-06 EigRej= -1.00D+00 NBFU=  1308
 Defaulting to unpruned grid for atomic number  44.
 ExpMin= 1.60D-02 ExpMax= 3.12D+05 ExpMxC= 9.87D+02 IAcc=3 IRadAn=         5 AccDes= 0.00D+00
 Harris functional with IExCor= 1009 and IRadAn=       5 diagonalized for initial guess.
 HarFok:  IExCor= 1009 AccDes= 0.00D+00 IRadAn=         5 IDoV= 1 UseB2=F ITyADJ=14
 ICtDFT=  3500011 ScaDFX=  1.000000  1.000000  1.000000  1.000000
 Defaulting to unpruned grid for atomic number  44.
 FoFCou: FMM=F IPFlag=           0 FMFlag=      100000 FMFlg1=        2001
         NFxFlg=           0 DoJE=T BraDBF=F KetDBF=T FulRan=T
         wScrn=  0.000000 ICntrl=       500 IOpCl=  0 I1Cent=   200000004 NGrid=           0
         NMat0=    1 NMatS0=      1 NMatT0=    0 NMatD0=    1 NMtDS0=    0 NMtDT0=    0
 Petite list used in FoFCou.
 Requested convergence on RMS density matrix=1.00D-08 within 128 cycles.
 Requested convergence on MAX density matrix=1.00D-06.
 Requested convergence on             energy=1.00D-06.
 No special actions if energy rises.
 Defaulting to unpruned grid for atomic number  44.
 Defaulting to unpruned grid for atomic number  44.
 Defaulting to unpruned grid for atomic number  44.
 Defaulting to unpruned grid for atomic number  44.
 Defaulting to unpruned grid for atomic number  44.
 Defaulting to unpruned grid for atomic number  44.
 Defaulting to unpruned grid for atomic number  44.
 Defaulting to unpruned grid for atomic number  44.
 Defaulting to unpruned grid for atomic number  44.
 Defaulting to unpruned grid for atomic number  44.
 Defaulting to unpruned grid for atomic number  44.
 Defaulting to unpruned grid for atomic number  44.
 Defaulting to unpruned grid for atomic number  44.
 Defaulting to unpruned grid for atomic number  44.
 Defaulting to unpruned grid for atomic number  44.
 Defaulting to unpruned grid for atomic number  44.
 Inv3:  Mode=1 IEnd=    47688507.
 Iteration    1 A*A^-1 deviation from unit magnitude is 8.22D-15 for   3973.
 Iteration    1 A*A^-1 deviation from orthogonality  is 7.67D-15 for   3957   1294.
 Iteration    1 A^-1*A deviation from unit magnitude is 9.77D-15 for   3957.
 Iteration    1 A^-1*A deviation from orthogonality  is 1.96D-14 for   3977   2473.
 EnCoef did     2 forward-backward iterations
 Error on total polarization charges =  0.07919
 SCF Done:  E(RPBE1PBE) =  -1479.81047321     A.U. after   17 cycles
            NFock= 17  Conv=0.16D-08     -V/T= 2.0493
 SMD-CDS (non-electrostatic) energy       (kcal/mol) =      11.14
 (included in total energy above)
 DoSCS=F DFT=T ScalE2(SS,OS)=  1.000000  1.000000
 Range of M.O.s used for correlation:     1  1308
 NBasis=  1308 NAE=   109 NBE=   109 NFC=     0 NFV=     0
 NROrb=   1308 NOA=   109 NOB=   109 NVA=  1199 NVB=  1199

 **** Warning!!: The largest alpha MO coefficient is  0.22450091D+02

 NEqPCM:  Using equilibrium solvation (IEInf=0, Eps=  78.3553, EpsInf=   1.7778)
          Differentiating once with respect to magnetic field using GIAOs.
          Electric field/nuclear overlap derivatives assumed to be zero.
 Defaulting to unpruned grid for atomic number  44.
   1 Symmetry operations used in ECPInt.
 ECPInt:  NShTT=  119316 NPrTT=  422118 LenC2=  119317 LenP2D=  422118.
 LDataN:  DoStor=T MaxTD1= 8 Len=  415
 Number of processors reduced to   7 by ecpmxn.
 FoFJK:  IHMeth= 1 ICntrl=    6127 DoSepK=F KAlg= 0 I1Cent=           0 FoldK=F
 IRaf=         1 NMat=       1 IRICut=       1 DoRegI=T DoRafI=F ISym2E= 0 IDoP0=0 IntGTp=1.
 Defaulting to unpruned grid for atomic number  44.
 Defaulting to unpruned grid for atomic number  44.
 Defaulting to unpruned grid for atomic number  44.
 Defaulting to unpruned grid for atomic number  44.
 Defaulting to unpruned grid for atomic number  44.
 Defaulting to unpruned grid for atomic number  44.
 Defaulting to unpruned grid for atomic number  44.
 Defaulting to unpruned grid for atomic number  44.
 Defaulting to unpruned grid for atomic number  44.
 Defaulting to unpruned grid for atomic number  44.
 Defaulting to unpruned grid for atomic number  44.
 Defaulting to unpruned grid for atomic number  44.
 Defaulting to unpruned grid for atomic number  44.
 Defaulting to unpruned grid for atomic number  44.
 Defaulting to unpruned grid for atomic number  44.
 Defaulting to unpruned grid for atomic number  44.
          There are     3 degrees of freedom in the 1st order CPHF.  IDoFFX=0 NUNeed=     3.
      3 vectors produced by pass  0 Test12= 4.36D-12 3.33D-08 XBig12= 8.33D+01 1.57D+00.
 AX will form     3 AO Fock derivatives at one time.
      3 vectors produced by pass  1 Test12= 4.36D-12 3.33D-08 XBig12= 3.60D-01 3.11D-01.
      3 vectors produced by pass  2 Test12= 4.36D-12 3.33D-08 XBig12= 7.44D-03 2.41D-02.
      3 vectors produced by pass  3 Test12= 4.36D-12 3.33D-08 XBig12= 3.78D-05 1.72D-03.
      3 vectors produced by pass  4 Test12= 4.36D-12 3.33D-08 XBig12= 3.73D-07 1.79D-04.
      3 vectors produced by pass  5 Test12= 4.36D-12 3.33D-08 XBig12= 4.34D-09 1.54D-05.
      3 vectors produced by pass  6 Test12= 4.36D-12 3.33D-08 XBig12= 3.53D-11 2.06D-06.
      3 vectors produced by pass  7 Test12= 4.36D-12 3.33D-08 XBig12= 2.78D-13 2.07D-07.
 InvSVY:  IOpt=1 It=  1 EMax= 7.11D-15
 Solved reduced A of dimension    24 with     3 vectors.
 Calculating GIAO nuclear magnetic shielding tensors.
 SCF GIAO Magnetic shielding tensor (ppm):
      1  N    Isotropic =   -47.7162   Anisotropy =   393.3037
   XX=  -136.4471   YX=    24.5713   ZX=   143.0603
   XY=    13.2103   YY=  -130.5616   ZY=    79.8203
   XZ=   165.1216   YZ=    81.3675   ZZ=   123.8601
   Eigenvalues:  -212.3010  -145.3338   214.4863
      2  C    Isotropic =    22.8847   Anisotropy =   169.0766
   XX=   -25.3587   YX=   -24.1119   ZX=    71.6024
   XY=    -5.9776   YY=    -1.9371   ZY=    42.7239
   XZ=    61.6611   YZ=    50.8012   ZZ=    95.9500
   Eigenvalues:   -71.7489     4.8005   135.6024
      3  C    Isotropic =    19.6147   Anisotropy =   180.2489
   XX=   -45.2155   YX=    18.9486   ZX=    75.0726
   XY=     6.3619   YY=     0.7158   ZY=    28.7081
   XZ=    76.9094   YZ=    14.6228   ZZ=   103.3438
   Eigenvalues:   -77.3415    -3.5950   139.7807
      4  C    Isotropic =    64.2501   Anisotropy =   168.9242
   XX=    -6.3663   YX=    36.8250   ZX=    62.0318
   XY=    43.3957   YY=    51.1415   ZY=    14.5079
   XZ=    56.9633   YZ=    26.3567   ZZ=   147.9752
   Eigenvalues:   -38.3039    54.1880   176.8663
      5  C    Isotropic =    43.6365   Anisotropy =   206.1424
   XX=    33.4285   YX=    32.7362   ZX=    50.2824
   XY=    32.0476   YY=   -52.7405   ZY=    43.5869
   XZ=    51.5119   YZ=    43.8848   ZZ=   150.2215
   Eigenvalues:   -67.0804    16.9251   181.0648
      6  C    Isotropic =    61.6775   Anisotropy =   168.0301
   XX=    35.2951   YX=   -25.8074   ZX=    62.3841
   XY=   -32.3872   YY=    15.5415   ZY=    49.5686
   XZ=    71.7491   YZ=    43.8902   ZZ=   134.1959
   Eigenvalues:   -40.7932    52.1281   173.6975
      7  C    Isotropic =   122.0262   Anisotropy =    48.1411
   XX=   113.5641   YX=     5.3668   ZX=   -13.5341
   XY=     4.6426   YY=   152.5357   ZY=     9.0057
   XZ=   -13.8470   YZ=     8.2130   ZZ=    99.9788
   Eigenvalues:    89.9063   122.0521   154.1203
      8  H    Isotropic =    23.6574   Anisotropy =     7.1562
   XX=    22.8801   YX=    -0.0510   ZX=    -1.1426
   XY=     0.3852   YY=    28.0826   ZY=    -1.5605
   XZ=    -1.1689   YZ=    -1.7078   ZZ=    20.0096
   Eigenvalues:    19.3458    23.1982    28.4282
      9  H    Isotropic =    23.2105   Anisotropy =     4.3972
   XX=    25.4045   YX=    -0.1822   ZX=    -2.0928
   XY=    -0.0744   YY=    23.8534   ZY=    -1.0287
   XZ=    -1.9663   YZ=    -0.9651   ZZ=    20.3736
   Eigenvalues:    19.4379    24.0516    26.1420
     10  H    Isotropic =    23.5070   Anisotropy =     8.3721
   XX=    24.1994   YX=    -3.4647   ZX=    -0.8187
   XY=    -3.2463   YY=    26.7712   ZY=    -1.0131
   XZ=    -0.7885   YZ=    -0.8214   ZZ=    19.5504
   Eigenvalues:    19.0499    22.3827    29.0884
     11  C    Isotropic =   147.7592   Anisotropy =    43.9543
   XX=   164.0814   YX=   -18.2994   ZX=   -10.4042
   XY=   -13.6568   YY=   151.0419   ZY=    -9.4720
   XZ=   -25.4449   YZ=    -9.8794   ZZ=   128.1543
   Eigenvalues:   114.2138   152.0017   177.0621
     12  N    Isotropic =   191.7155   Anisotropy =    77.1002
   XX=   181.6533   YX=    10.7465   ZX=   -11.5836
   XY=    13.3610   YY=   240.6596   ZY=     2.1701
   XZ=     5.2315   YZ=    -6.6867   ZZ=   152.8336
   Eigenvalues:   152.4771   179.5538   243.1156
     13  H    Isotropic =    27.0075   Anisotropy =     8.4957
   XX=    29.2147   YX=    -2.7118   ZX=    -0.9192
   XY=    -3.4845   YY=    28.4836   ZY=     2.4167
   XZ=    -1.5670   YZ=     2.4423   ZZ=    23.3242
   Eigenvalues:    22.3602    25.9909    32.6713
     14  H    Isotropic =    26.9762   Anisotropy =     4.3085
   XX=    26.0257   YX=    -0.2900   ZX=    -0.1549
   XY=    -0.4609   YY=    25.9460   ZY=     3.1528
   XZ=    -1.2381   YZ=     0.1493   ZZ=    28.9569
   Eigenvalues:    25.2114    25.8687    29.8485
     15  H    Isotropic =    26.7482   Anisotropy =     2.8728
   XX=    25.3362   YX=     0.0862   ZX=    -0.0856
   XY=     0.0024   YY=    26.5071   ZY=    -0.0152
   XZ=    -1.7363   YZ=     0.3711   ZZ=    28.4013
   Eigenvalues:    25.0802    26.5010    28.6634
     16  P    Isotropic =   196.5847   Anisotropy =   235.9641
   XX=   311.0442   YX=    59.8105   ZX=   -31.3718
   XY=   122.0722   YY=   130.2243   ZY=    11.9409
   XZ=   -37.7275   YZ=   -12.8601   ZZ=   148.4855
   Eigenvalues:    89.4058   146.4541   353.8941
     17  H    Isotropic =    27.5289   Anisotropy =     8.1173
   XX=    28.8662   YX=     2.0460   ZX=    -1.2032
   XY=     1.2474   YY=    31.0087   ZY=    -2.4423
   XZ=    -1.4456   YZ=    -3.5317   ZZ=    22.7119
   Eigenvalues:    21.6649    27.9814    32.9405
     18  Ru   Isotropic =  -387.3924   Anisotropy =   152.5973
   XX=  -312.8471   YX=   -40.9280   ZX=    34.1979
   XY=   -21.0199   YY=  -493.3658   ZY=   -27.4317
   XZ=    36.7372   YZ=   -20.4904   ZZ=  -355.9641
   Eigenvalues:  -500.8443  -375.6719  -285.6608
     19  C    Isotropic =   142.5229   Anisotropy =    28.0269
   XX=   151.7041   YX=    -4.0405   ZX=    13.6096
   XY=    -8.8828   YY=   122.2258   ZY=     4.9419
   XZ=     3.3143   YZ=     8.7356   ZZ=   153.6387
   Eigenvalues:   118.7512   147.6099   161.2074
     20  C    Isotropic =   145.3676   Anisotropy =    27.8993
   XX=   151.0955   YX=    -6.1471   ZX=    -9.8054
   XY=    -9.6372   YY=   136.2447   ZY=     8.9639
   XZ=    -7.8242   YZ=     9.1952   ZZ=   148.7625
   Eigenvalues:   130.8959   141.2397   163.9671
     21  C    Isotropic =   130.2440   Anisotropy =    60.1199
   XX=   113.6559   YX=    15.4783   ZX=   -16.5349
   XY=    21.1685   YY=   141.2414   ZY=   -21.4392
   XZ=   -14.3750   YZ=   -21.5222   ZZ=   135.8346
   Eigenvalues:   103.5031   116.9049   170.3239
     22  C    Isotropic =   146.7096   Anisotropy =    24.0624
   XX=   146.2162   YX=     0.1642   ZX=     8.9191
   XY=    -2.5043   YY=   141.9095   ZY=     9.1242
   XZ=    13.9870   YZ=     7.7859   ZZ=   152.0029
   Eigenvalues:   132.6322   144.7453   162.7512
     23  C    Isotropic =   155.9256   Anisotropy =    38.9102
   XX=   159.1403   YX=    12.3817   ZX=     9.4127
   XY=    15.6581   YY=   148.9599   ZY=    13.8588
   XZ=     8.6895   YZ=    17.4371   ZZ=   159.6766
   Eigenvalues:   135.5303   150.3807   181.8657
     24  C    Isotropic =   158.2272   Anisotropy =    31.0395
   XX=   154.8477   YX=    -9.2549   ZX=    12.4867
   XY=   -10.9870   YY=   160.8458   ZY=   -12.3735
   XZ=     6.1517   YZ=    -9.8295   ZZ=   158.9882
   Eigenvalues:   146.9847   148.7767   178.9202
     25  C    Isotropic =   160.4094   Anisotropy =    37.5370
   XX=   164.1275   YX=    15.8450   ZX=   -13.6424
   XY=    13.1318   YY=   162.9192   ZY=    -5.4289
   XZ=   -13.8136   YZ=    -9.5905   ZZ=   154.1815
   Eigenvalues:   144.0831   151.7110   185.4341
     26  C    Isotropic =   157.1129   Anisotropy =    35.5857
   XX=   157.8846   YX=   -16.4918   ZX=    -5.0320
   XY=   -18.2116   YY=   160.5334   ZY=    12.4667
   XZ=    -3.3664   YZ=     9.1176   ZZ=   152.9206
   Eigenvalues:   139.9589   150.5430   180.8367
     27  C    Isotropic =   161.5945   Anisotropy =    31.0487
   XX=   177.6331   YX=     7.2971   ZX=   -10.9806
   XY=    10.1566   YY=   153.8121   ZY=    -0.4643
   XZ=    -4.5220   YZ=     1.5631   ZZ=   153.3384
   Eigenvalues:   148.3839   154.1061   182.2937
     28  C    Isotropic =   160.7361   Anisotropy =    33.9357
   XX=   146.3524   YX=    -1.6965   ZX=     5.3090
   XY=    -0.7777   YY=   168.5384   ZY=   -13.4036
   XZ=     2.2416   YZ=   -16.7687   ZZ=   167.3174
   Eigenvalues:   145.5460   153.3023   183.3599
     29  H    Isotropic =    41.2355   Anisotropy =    13.8301
   XX=    49.8110   YX=     1.4542   ZX=     2.0604
   XY=     0.5761   YY=    48.6792   ZY=    -2.2894
   XZ=    -2.8499   YZ=    -0.6810   ZZ=    25.2163
   Eigenvalues:    25.1182    48.1327    50.4556
     30  H    Isotropic =    27.9255   Anisotropy =    11.3457
   XX=    34.9348   YX=     2.1788   ZX=    -2.0566
   XY=     1.1566   YY=    21.4639   ZY=    -2.1263
   XZ=    -1.0871   YZ=     0.1005   ZZ=    27.3779
   Eigenvalues:    21.1502    27.1370    35.4894
     31  C    Isotropic =   183.7170   Anisotropy =    12.3857
   XX=   191.8238   YX=    -1.6149   ZX=    -1.0635
   XY=    -0.7443   YY=   179.5554   ZY=     1.5818
   XZ=     2.6450   YZ=     0.7465   ZZ=   179.7717
   Eigenvalues:   178.3478   180.8290   191.9741
     32  H    Isotropic =    29.0221   Anisotropy =     4.5530
   XX=    29.4328   YX=    -0.1843   ZX=     0.5303
   XY=    -1.2932   YY=    28.2708   ZY=     1.7084
   XZ=     1.6803   YZ=     4.5628   ZZ=    29.3628
   Eigenvalues:    25.2431    29.7659    32.0574
     33  H    Isotropic =    28.0429   Anisotropy =     5.1197
   XX=    27.2327   YX=     2.8533   ZX=    -0.6214
   XY=     1.8473   YY=    26.3350   ZY=    -2.2557
   XZ=     1.6015   YZ=    -1.8652   ZZ=    30.5611
   Eigenvalues:    23.8404    28.8322    31.4561
     34  C    Isotropic =   172.6948   Anisotropy =    19.8166
   XX=   170.3078   YX=     2.7225   ZX=    -6.3945
   XY=     0.3894   YY=   184.9107   ZY=     3.1546
   XZ=    -6.8540   YZ=     6.4108   ZZ=   162.8660
   Eigenvalues:   158.0867   174.0920   185.9059
     35  H    Isotropic =    28.1233   Anisotropy =     8.6131
   XX=    30.6804   YX=     0.2154   ZX=    -4.0431
   XY=     1.7229   YY=    26.6230   ZY=    -1.6738
   XZ=    -4.5999   YZ=    -0.7944   ZZ=    27.0664
   Eigenvalues:    24.0850    26.4194    33.8653
     36  C    Isotropic =   -47.1502   Anisotropy =   452.4006
   XX=  -163.3065   YX=  -118.2552   ZX=    14.5600
   XY=  -109.7435   YY=   213.7400   ZY=   -57.5204
   XZ=    16.0125   YZ=   -64.9822   ZZ=  -191.8840
   Eigenvalues:  -201.2794  -194.6214   254.4502
     37  O    Isotropic =   356.3932   Anisotropy =   106.5731
   XX=   406.9648   YX=   -13.8020   ZX=    -9.3694
   XY=     0.1105   YY=   422.7724   ZY=    51.2821
   XZ=   -20.3378   YZ=   -20.1302   ZZ=   239.4425
   Eigenvalues:   236.9359   404.8018   427.4420
     38  H    Isotropic =    34.0868   Anisotropy =    19.0242
   XX=    25.9333   YX=     1.3735   ZX=     1.4642
   XY=    -0.1514   YY=    43.0703   ZY=     7.4321
   XZ=     0.9637   YZ=     6.5659   ZZ=    33.2567
   Eigenvalues:    25.7135    29.7772    46.7696
     39  H    Isotropic =    29.5243   Anisotropy =     8.7048
   XX=    34.3238   YX=    -0.0625   ZX=    -2.3293
   XY=    -2.4488   YY=    29.7602   ZY=     1.0806
   XZ=    -2.8282   YZ=     0.6732   ZZ=    24.4889
   Eigenvalues:    23.8011    29.4443    35.3275
     40  H    Isotropic =    29.9116   Anisotropy =     8.6555
   XX=    30.7009   YX=     3.0701   ZX=     4.0407
   XY=     2.8943   YY=    30.8443   ZY=     1.0183
   XZ=     4.1785   YZ=     1.1375   ZZ=    28.1896
   Eigenvalues:    24.9770    29.0759    35.6819
     41  H    Isotropic =    29.9461   Anisotropy =    11.9365
   XX=    27.2370   YX=     3.3231   ZX=    -2.0419
   XY=     2.7504   YY=    33.8424   ZY=    -4.9748
   XZ=    -1.7686   YZ=    -4.5511   ZZ=    28.7588
   Eigenvalues:    25.8728    26.0616    37.9038
     42  H    Isotropic =    30.8536   Anisotropy =    12.3302
   XX=    32.1155   YX=     0.1227   ZX=     5.6304
   XY=    -0.1174   YY=    26.1780   ZY=     0.3193
   XZ=     5.9035   YZ=     0.8495   ZZ=    34.2675
   Eigenvalues:    26.0538    27.4334    39.0738
     43  H    Isotropic =    30.3217   Anisotropy =     9.5085
   XX=    31.9001   YX=    -4.1252   ZX=     0.9111
   XY=    -3.3029   YY=    33.7433   ZY=     1.9186
   XZ=     3.0275   YZ=     2.0654   ZZ=    25.3215
   Eigenvalues:    23.8199    30.4844    36.6607
     44  H    Isotropic =    30.3119   Anisotropy =     9.6391
   XX=    35.3636   YX=     3.3212   ZX=    -1.5092
   XY=     2.3803   YY=    28.3268   ZY=    -3.4519
   XZ=    -0.0420   YZ=    -2.8419   ZZ=    27.2452
   Eigenvalues:    24.4355    29.7622    36.7379
     45  H    Isotropic =    30.5951   Anisotropy =    10.1222
   XX=    29.3620   YX=    -0.7005   ZX=    -2.3840
   XY=    -1.1922   YY=    29.0984   ZY=     4.2585
   XZ=    -3.5022   YZ=     4.8116   ZZ=    33.3248
   Eigenvalues:    25.9651    28.4769    37.3432
     46  H    Isotropic =    28.3741   Anisotropy =     9.1152
   XX=    33.0532   YX=    -4.0644   ZX=     1.2747
   XY=    -3.5229   YY=    23.7058   ZY=     1.1832
   XZ=     0.7722   YZ=     1.2768   ZZ=    28.3635
   Eigenvalues:    22.0041    28.6674    34.4509
     47  H    Isotropic =    29.7668   Anisotropy =     6.5494
   XX=    31.0117   YX=     2.9254   ZX=    -2.2507
   XY=     3.2237   YY=    31.0699   ZY=     0.2018
   XZ=    -1.5039   YZ=     2.5981   ZZ=    27.2188
   Eigenvalues:    25.2367    29.9306    34.1331
     48  H    Isotropic =    30.2126   Anisotropy =    10.4293
   XX=    31.3176   YX=    -4.9949   ZX=    -1.6911
   XY=    -5.1288   YY=    31.5487   ZY=     2.3530
   XZ=    -1.3463   YZ=     1.6862   ZZ=    27.7714
   Eigenvalues:    26.2529    27.2194    37.1654
     49  H    Isotropic =    29.7271   Anisotropy =     5.9979
   XX=    29.1934   YX=    -0.8565   ZX=    -1.5694
   XY=     0.4513   YY=    31.7649   ZY=    -2.9492
   XZ=    -1.7470   YZ=    -3.3816   ZZ=    28.2231
   Eigenvalues:    25.6862    29.7695    33.7257
     50  H    Isotropic =    29.5476   Anisotropy =     7.2097
   XX=    30.8714   YX=    -1.1359   ZX=     3.9387
   XY=    -2.6438   YY=    27.7912   ZY=     1.3568
   XZ=     3.8461   YZ=     2.1454   ZZ=    29.9803
   Eigenvalues:    24.5035    29.7853    34.3541
     51  H    Isotropic =    30.4167   Anisotropy =    11.1891
   XX=    33.4017   YX=    -1.3038   ZX=    -5.4921
   XY=    -0.5642   YY=    27.5317   ZY=     0.5919
   XZ=    -5.7602   YZ=     1.4964   ZZ=    30.3166
   Eigenvalues:    25.9755    27.3985    37.8760
     52  H    Isotropic =    29.3196   Anisotropy =     7.0984
   XX=    30.3921   YX=     4.2951   ZX=     0.0675
   XY=     4.1606   YY=    28.1730   ZY=     3.4886
   XZ=    -1.3375   YZ=     2.2328   ZZ=    29.3938
   Eigenvalues:    23.6519    30.2551    34.0519
     53  H    Isotropic =    29.9042   Anisotropy =     7.3612
   XX=    28.9944   YX=    -0.1328   ZX=    -2.8092
   XY=    -1.2776   YY=    30.0983   ZY=    -3.9648
   XZ=    -2.0510   YZ=    -4.2928   ZZ=    30.6197
   Eigenvalues:    24.9855    29.9154    34.8116
     54  H    Isotropic =    29.5219   Anisotropy =     7.7980
   XX=    34.0826   YX=    -2.2363   ZX=    -1.3104
   XY=    -0.7026   YY=    27.2305   ZY=     3.0261
   XZ=    -0.4103   YZ=     3.1877   ZZ=    27.2525
   Eigenvalues:    24.1149    29.7302    34.7205
     55  H    Isotropic =    30.2476   Anisotropy =    11.2313
   XX=    31.9410   YX=     3.2838   ZX=     3.8991
   XY=     3.4762   YY=    27.7910   ZY=     3.4962
   XZ=     4.1565   YZ=     2.9915   ZZ=    31.0107
   Eigenvalues:    25.5736    27.4340    37.7351
     56  H    Isotropic =    29.6272   Anisotropy =     7.5034
   XX=    29.4745   YX=     4.2382   ZX=    -0.9485
   XY=     3.5169   YY=    30.6969   ZY=    -2.6764
   XZ=     0.7293   YZ=    -2.0621   ZZ=    28.7102
   Eigenvalues:    25.4236    28.8284    34.6295
     57  H    Isotropic =    29.8756   Anisotropy =     7.3426
   XX=    28.0866   YX=    -4.1820   ZX=    -0.1072
   XY=    -4.9654   YY=    31.5752   ZY=     0.1584
   XZ=     0.8673   YZ=    -0.7605   ZZ=    29.9650
   Eigenvalues:    24.9318    29.9243    34.7707
     58  H    Isotropic =    29.3295   Anisotropy =     6.7002
   XX=    32.3221   YX=     2.5046   ZX=     2.3452
   XY=     4.0621   YY=    26.2536   ZY=    -1.9843
   XZ=     0.8808   YZ=    -3.6460   ZZ=    29.4129
   Eigenvalues:    23.1522    31.0400    33.7963
     59  H    Isotropic =    30.7881   Anisotropy =    11.1707
   XX=    28.0341   YX=    -0.2744   ZX=     3.3165
   XY=    -0.0908   YY=    27.4040   ZY=    -0.8322
   XZ=     3.8868   YZ=    -0.3117   ZZ=    36.9262
   Eigenvalues:    26.7578    27.3713    38.2352
     60  H    Isotropic =    31.1215   Anisotropy =    10.5273
   XX=    28.2541   YX=    -0.4717   ZX=     0.9899
   XY=     0.5303   YY=    29.7305   ZY=     5.0552
   XZ=     2.7153   YZ=     3.9423   ZZ=    35.3799
   Eigenvalues:    26.6766    28.5482    38.1397
     61  H    Isotropic =    29.9316   Anisotropy =     7.6177
   XX=    34.4382   YX=     1.6698   ZX=     0.8388
   XY=     1.1606   YY=    25.7972   ZY=     3.6221
   XZ=     1.1438   YZ=     0.7049   ZZ=    29.5594
   Eigenvalues:    24.7289    30.0558    35.0100
     62  H    Isotropic =    30.9231   Anisotropy =     6.7728
   XX=    28.6822   YX=    -2.8310   ZX=     2.3890
   XY=    -0.6284   YY=    34.3705   ZY=    -0.6039
   XZ=     5.3255   YZ=    -0.3872   ZZ=    29.7168
   Eigenvalues:    25.2005    32.1306    35.4383
     63  O    Isotropic =   -36.3992   Anisotropy =   570.8576
   XX=  -184.4190   YX=  -137.2450   ZX=    20.7526
   XY=  -141.3390   YY=   296.9283   ZY=   -73.2325
   XZ=    22.2697   YZ=   -69.7592   ZZ=  -221.7071
   Eigenvalues:  -232.0298  -221.3405   344.1725
 End of Minotr F.D. properties file   721 does not exist.
 End of Minotr F.D. properties file   722 does not exist.
 End of Minotr F.D. properties file   788 does not exist.

 **********************************************************************

            Population analysis using the SCF density.

 **********************************************************************

 Orbital symmetries:
       Occupied  (A) (A) (A) (A) (A) (A) (A) (A) (A) (A) (A) (A)
                 (A) (A) (A) (A) (A) (A) (A) (A) (A) (A) (A) (A)
                 (A) (A) (A) (A) (A) (A) (A) (A) (A) (A) (A) (A)
                 (A) (A) (A) (A) (A) (A) (A) (A) (A) (A) (A) (A)
                 (A) (A) (A) (A) (A) (A) (A) (A) (A) (A) (A) (A)
                 (A) (A) (A) (A) (A) (A) (A) (A) (A) (A) (A) (A)
                 (A) (A) (A) (A) (A) (A) (A) (A) (A) (A) (A) (A)
                 (A) (A) (A) (A) (A) (A) (A) (A) (A) (A) (A) (A)
                 (A) (A) (A) (A) (A) (A) (A) (A) (A) (A) (A) (A)
                 (A)
       Virtual   (A) (A) (A) (A) (A) (A) (A) (A) (A) (A) (A) (A)
                 (A) (A) (A) (A) (A) (A) (A) (A) (A) (A) (A) (A)
                 (A) (A) (A) (A) (A) (A) (A) (A) (A) (A) (A) (A)
                 (A) (A) (A) (A) (A) (A) (A) (A) (A) (A) (A) (A)
                 (A) (A) (A) (A) (A) (A) (A) (A) (A) (A) (A) (A)
                 (A) (A) (A) (A) (A) (A) (A) (A) (A) (A) (A) (A)
                 (A) (A) (A) (A) (A) (A) (A) (A) (A) (A) (A) (A)
                 (A) (A) (A) (A) (A) (A) (A) (A) (A) (A) (A) (A)
                 (A) (A) (A) (A) (A) (A) (A) (A) (A) (A) (A) (A)
                 (A) (A) (A) (A) (A) (A) (A) (A) (A) (A) (A) (A)
                 (A) (A) (A) (A) (A) (A) (A) (A) (A) (A) (A) (A)
                 (A) (A) (A) (A) (A) (A) (A) (A) (A) (A) (A) (A)
                 (A) (A) (A) (A) (A) (A) (A) (A) (A) (A) (A) (A)
                 (A) (A) (A) (A) (A) (A) (A) (A) (A) (A) (A) (A)
                 (A) (A) (A) (A) (A) (A) (A) (A) (A) (A) (A) (A)
                 (A) (A) (A) (A) (A) (A) (A) (A) (A) (A) (A) (A)
                 (A) (A) (A) (A) (A) (A) (A) (A) (A) (A) (A) (A)
                 (A) (A) (A) (A) (A) (A) (A) (A) (A) (A) (A) (A)
                 (A) (A) (A) (A) (A) (A) (A) (A) (A) (A) (A) (A)
                 (A) (A) (A) (A) (A) (A) (A) (A) (A) (A) (A) (A)
                 (A) (A) (A) (A) (A) (A) (A) (A) (A) (A) (A) (A)
                 (A) (A) (A) (A) (A) (A) (A) (A) (A) (A) (A) (A)
                 (A) (A) (A) (A) (A) (A) (A) (A) (A) (A) (A) (A)
                 (A) (A) (A) (A) (A) (A) (A) (A) (A) (A) (A) (A)
                 (A) (A) (A) (A) (A) (A) (A) (A) (A) (A) (A) (A)
                 (A) (A) (A) (A) (A) (A) (A) (A) (A) (A) (A) (A)
                 (A) (A) (A) (A) (A) (A) (A) (A) (A) (A) (A) (A)
                 (A) (A) (A) (A) (A) (A) (A) (A) (A) (A) (A) (A)
                 (A) (A) (A) (A) (A) (A) (A) (A) (A) (A) (A) (A)
                 (A) (A) (A) (A) (A) (A) (A) (A) (A) (A) (A) (A)
                 (A) (A) (A) (A) (A) (A) (A) (A) (A) (A) (A) (A)
                 (A) (A) (A) (A) (A) (A) (A) (A) (A) (A) (A) (A)
                 (A) (A) (A) (A) (A) (A) (A) (A) (A) (A) (A) (A)
                 (A) (A) (A) (A) (A) (A) (A) (A) (A) (A) (A) (A)
                 (A) (A) (A) (A) (A) (A) (A) (A) (A) (A) (A) (A)
                 (A) (A) (A) (A) (A) (A) (A) (A) (A) (A) (A) (A)
                 (A) (A) (A) (A) (A) (A) (A) (A) (A) (A) (A) (A)
                 (A) (A) (A) (A) (A) (A) (A) (A) (A) (A) (A) (A)
                 (A) (A) (A) (A) (A) (A) (A) (A) (A) (A) (A) (A)
                 (A) (A) (A) (A) (A) (A) (A) (A) (A) (A) (A) (A)
                 (A) (A) (A) (A) (A) (A) (A) (A) (A) (A) (A) (A)
                 (A) (A) (A) (A) (A) (A) (A) (A) (A) (A) (A) (A)
                 (A) (A) (A) (A) (A) (A) (A) (A) (A) (A) (A) (A)
                 (A) (A) (A) (A) (A) (A) (A) (A) (A) (A) (A) (A)
                 (A) (A) (A) (A) (A) (A) (A) (A) (A) (A) (A) (A)
                 (A) (A) (A) (A) (A) (A) (A) (A) (A) (A) (A) (A)
                 (A) (A) (A) (A) (A) (A) (A) (A) (A) (A) (A) (A)
                 (A) (A) (A) (A) (A) (A) (A) (A) (A) (A) (A) (A)
                 (A) (A) (A) (A) (A) (A) (A) (A) (A) (A) (A) (A)
                 (A) (A) (A) (A) (A) (A) (A) (A) (A) (A) (A) (A)
                 (A) (A) (A) (A) (A) (A) (A) (A) (A) (A) (A) (A)
                 (A) (A) (A) (A) (A) (A) (A) (A) (A) (A) (A) (A)
                 (A) (A) (A) (A) (A) (A) (A) (A) (A) (A) (A) (A)
                 (A) (A) (A) (A) (A) (A) (A) (A) (A) (A) (A) (A)
                 (A) (A) (A) (A) (A) (A) (A) (A) (A) (A) (A) (A)
                 (A) (A) (A) (A) (A) (A) (A) (A) (A) (A) (A) (A)
                 (A) (A) (A) (A) (A) (A) (A) (A) (A) (A) (A) (A)
                 (A) (A) (A) (A) (A) (A) (A) (A) (A) (A) (A) (A)
                 (A) (A) (A) (A) (A) (A) (A) (A) (A) (A) (A) (A)
                 (A) (A) (A) (A) (A) (A) (A) (A) (A) (A) (A) (A)
                 (A) (A) (A) (A) (A) (A) (A) (A) (A) (A) (A) (A)
[...]
 Alpha virt. eigenvalues --    1.65366   1.66380   1.66722   1.67082   1.67628
 Alpha virt. eigenvalues --    1.68295   1.68937   1.69315   1.70043   1.70674
 Alpha virt. eigenvalues --    1.71510   1.71902   1.72850   1.73468   1.74113
 Alpha virt. eigenvalues --    1.74543   1.75151   1.75674   1.76801   1.77215
 Alpha virt. eigenvalues --    1.77462   1.79780   1.80750   1.81145   1.82871
 Alpha virt. eigenvalues --    1.83355   1.84984   1.85193   1.85935   1.86544
 Alpha virt. eigenvalues --    1.87405   1.88051   1.89008   1.90434   1.91065
 Alpha virt. eigenvalues --    1.92127   1.93084   1.93489   1.94753   1.96432
 Alpha virt. eigenvalues --    1.96642   1.98181   1.98630   1.99232   2.00328
 Alpha virt. eigenvalues --    2.00937   2.02586   2.02769   2.04028   2.05738
 Alpha virt. eigenvalues --    2.07328   2.08488   2.10232   2.11067   2.13658
 Alpha virt. eigenvalues --    2.14142   2.15032   2.18635   2.18778   2.22141
 Alpha virt. eigenvalues --    2.22550   2.23266   2.25305   2.26173   2.27537
 Alpha virt. eigenvalues --    2.30078   2.31327   2.32008   2.32498   2.33792
 Alpha virt. eigenvalues --    2.34515   2.35201   2.35504   2.36045   2.36912
 Alpha virt. eigenvalues --    2.37769   2.38522   2.38889   2.39136   2.41124
 Alpha virt. eigenvalues --    2.41743   2.43416   2.43851   2.44713   2.45089
 Alpha virt. eigenvalues --    2.45456   2.45988   2.46643   2.47380   2.48085
 Alpha virt. eigenvalues --    2.48630   2.49763   2.50148   2.51103   2.51865
 Alpha virt. eigenvalues --    2.52387   2.52645   2.53337   2.53709   2.53891
 Alpha virt. eigenvalues --    2.54898   2.55188   2.56228   2.56656   2.57554
 Alpha virt. eigenvalues --    2.57802   2.58195   2.58438   2.59012   2.60144
 Alpha virt. eigenvalues --    2.61051   2.61795   2.62216   2.62702   2.63249
 Alpha virt. eigenvalues --    2.64136   2.64236   2.64789   2.65314   2.66072
 Alpha virt. eigenvalues --    2.66374   2.67195   2.67542   2.67938   2.68481
 Alpha virt. eigenvalues --    2.68543   2.69015   2.69767   2.70404   2.70607
 Alpha virt. eigenvalues --    2.70689   2.71290   2.71901   2.72572   2.72774
 Alpha virt. eigenvalues --    2.73377   2.73549   2.74595   2.74895   2.75098
 Alpha virt. eigenvalues --    2.75862   2.76631   2.76970   2.77442   2.78039
 Alpha virt. eigenvalues --    2.78555   2.79121   2.79208   2.79466   2.79745
 Alpha virt. eigenvalues --    2.79835   2.80736   2.80936   2.81278   2.81814
 Alpha virt. eigenvalues --    2.82444   2.82728   2.83661   2.83818   2.83883
 Alpha virt. eigenvalues --    2.84499   2.85038   2.85689   2.85841   2.86588
 Alpha virt. eigenvalues --    2.86926   2.86960   2.87533   2.88219   2.88489
 Alpha virt. eigenvalues --    2.88810   2.89617   2.90116   2.90429   2.91123
 Alpha virt. eigenvalues --    2.91361   2.91775   2.92507   2.92790   2.93440
 Alpha virt. eigenvalues --    2.94127   2.94436   2.94891   2.95921   2.96243
 Alpha virt. eigenvalues --    2.96477   2.96984   2.97807   2.98092   2.98249
 Alpha virt. eigenvalues --    2.98846   2.99536   2.99984   3.00301   3.00709
 Alpha virt. eigenvalues --    3.01115   3.01244   3.01453   3.01773   3.02395
 Alpha virt. eigenvalues --    3.02753   3.03280   3.03669   3.03788   3.04145
 Alpha virt. eigenvalues --    3.04627   3.04798   3.05472   3.05763   3.06206
 Alpha virt. eigenvalues --    3.06412   3.07024   3.07120   3.07353   3.07995
 Alpha virt. eigenvalues --    3.08301   3.08481   3.09133   3.09278   3.09508
 Alpha virt. eigenvalues --    3.09732   3.10148   3.10172   3.10901   3.11260
 Alpha virt. eigenvalues --    3.11340   3.11777   3.12432   3.12594   3.12831
 Alpha virt. eigenvalues --    3.12887   3.13258   3.13820   3.14108   3.14516
 Alpha virt. eigenvalues --    3.14842   3.15126   3.15256   3.15744   3.16250
 Alpha virt. eigenvalues --    3.16338   3.16959   3.17165   3.17534   3.17932
 Alpha virt. eigenvalues --    3.18560   3.18833   3.18992   3.19517   3.19837
 Alpha virt. eigenvalues --    3.20166   3.20407   3.21117   3.21232   3.22055
 Alpha virt. eigenvalues --    3.22430   3.22619   3.22698   3.23556   3.23852
 Alpha virt. eigenvalues --    3.24144   3.24778   3.25963   3.26196   3.26511
 Alpha virt. eigenvalues --    3.27102   3.27559   3.27991   3.28154   3.28535
 Alpha virt. eigenvalues --    3.28976   3.29248   3.29862   3.30128   3.30453
 Alpha virt. eigenvalues --    3.31464   3.31635   3.31892   3.32484   3.32596
 Alpha virt. eigenvalues --    3.33084   3.33235   3.33594   3.34064   3.34707
 Alpha virt. eigenvalues --    3.34839   3.35654   3.36185   3.36574   3.36691
 Alpha virt. eigenvalues --    3.37074   3.37431   3.37598   3.38167   3.38854
 Alpha virt. eigenvalues --    3.39238   3.39442   3.39985   3.40345   3.41067
 Alpha virt. eigenvalues --    3.41511   3.41611   3.41956   3.42701   3.43116
 Alpha virt. eigenvalues --    3.43812   3.43911   3.44029   3.44356   3.44680
 Alpha virt. eigenvalues --    3.44931   3.45783   3.46008   3.46473   3.47002
 Alpha virt. eigenvalues --    3.47063   3.47581   3.47864   3.48283   3.48894
 Alpha virt. eigenvalues --    3.49181   3.49537   3.49638   3.49960   3.50326
 Alpha virt. eigenvalues --    3.50402   3.50736   3.51605   3.52160   3.52242
 Alpha virt. eigenvalues --    3.52276   3.53093   3.53838   3.54177   3.54701
 Alpha virt. eigenvalues --    3.55186   3.55678   3.55952   3.56150   3.56636
 Alpha virt. eigenvalues --    3.57519   3.57706   3.58382   3.58410   3.58970
 Alpha virt. eigenvalues --    3.59554   3.60115   3.60457   3.61052   3.61153
 Alpha virt. eigenvalues --    3.61768   3.62085   3.62252   3.62922   3.63709
 Alpha virt. eigenvalues --    3.63902   3.64196   3.65012   3.65215   3.65740
 Alpha virt. eigenvalues --    3.67119   3.67429   3.67787   3.68168   3.68630
 Alpha virt. eigenvalues --    3.69731   3.70300   3.70931   3.71082   3.71557
 Alpha virt. eigenvalues --    3.71727   3.72567   3.73149   3.73400   3.73767
 Alpha virt. eigenvalues --    3.74221   3.74539   3.75624   3.76014   3.76533
 Alpha virt. eigenvalues --    3.77104   3.77193   3.78013   3.78364   3.78661
 Alpha virt. eigenvalues --    3.78924   3.79117   3.79922   3.80195   3.80258
 Alpha virt. eigenvalues --    3.81130   3.81509   3.81882   3.83012   3.83494
 Alpha virt. eigenvalues --    3.84139   3.84612   3.85179   3.86195   3.86666
 Alpha virt. eigenvalues --    3.87345   3.87644   3.87891   3.88501   3.88944
 Alpha virt. eigenvalues --    3.89763   3.90101   3.90757   3.90918   3.91705
 Alpha virt. eigenvalues --    3.92382   3.92726   3.92811   3.93914   3.94159
 Alpha virt. eigenvalues --    3.94483   3.94769   3.95976   3.96262   3.96520
 Alpha virt. eigenvalues --    3.96757   3.97228   3.97720   3.97803   3.99203
 Alpha virt. eigenvalues --    3.99741   4.00595   4.00691   4.01625   4.02176
 Alpha virt. eigenvalues --    4.02481   4.03192   4.03363   4.03603   4.03750
 Alpha virt. eigenvalues --    4.04619   4.05215   4.05672   4.05888   4.06448
 Alpha virt. eigenvalues --    4.06953   4.07437   4.07748   4.08560   4.08877
 Alpha virt. eigenvalues --    4.09477   4.09718   4.10154   4.10330   4.10758
 Alpha virt. eigenvalues --    4.11243   4.11560   4.12103   4.12447   4.12741
 Alpha virt. eigenvalues --    4.13328   4.13494   4.13954   4.14465   4.14606
 Alpha virt. eigenvalues --    4.14939   4.15353   4.15579   4.16171   4.16299
 Alpha virt. eigenvalues --    4.16862   4.17351   4.17729   4.18064   4.18265
 Alpha virt. eigenvalues --    4.18828   4.19543   4.20384   4.20731   4.21016
 Alpha virt. eigenvalues --    4.21539   4.21629   4.21639   4.22819   4.22897
 Alpha virt. eigenvalues --    4.23351   4.24092   4.24403   4.24654   4.25158
 Alpha virt. eigenvalues --    4.25453   4.25972   4.26595   4.26717   4.27329
 Alpha virt. eigenvalues --    4.27615   4.27950   4.28582   4.28694   4.29750
 Alpha virt. eigenvalues --    4.29930   4.30212   4.30713   4.30963   4.31341
 Alpha virt. eigenvalues --    4.31678   4.32028   4.32512   4.32809   4.32835
 Alpha virt. eigenvalues --    4.33150   4.33568   4.34292   4.34488   4.34708
 Alpha virt. eigenvalues --    4.35206   4.35574   4.36287   4.37057   4.37307
 Alpha virt. eigenvalues --    4.37556   4.37872   4.38405   4.38676   4.39616
 Alpha virt. eigenvalues --    4.40207   4.41060   4.41583   4.41948   4.42995
 Alpha virt. eigenvalues --    4.43567   4.44076   4.44678   4.45221   4.45733
 Alpha virt. eigenvalues --    4.45865   4.46609   4.46958   4.47273   4.47615
 Alpha virt. eigenvalues --    4.48369   4.49173   4.49296   4.50815   4.51447
 Alpha virt. eigenvalues --    4.51777   4.52994   4.53225   4.53912   4.54420
 Alpha virt. eigenvalues --    4.55069   4.55503   4.56500   4.57434   4.57800
 Alpha virt. eigenvalues --    4.58252   4.58761   4.59234   4.60534   4.61794
 Alpha virt. eigenvalues --    4.62873   4.63247   4.65183   4.65663   4.67377
 Alpha virt. eigenvalues --    4.68435   4.70246   4.70501   4.70794   4.71939
 Alpha virt. eigenvalues --    4.73354   4.74278   4.74600   4.75042   4.76604
 Alpha virt. eigenvalues --    4.77217   4.77870   4.79188   4.79447   4.81260
 Alpha virt. eigenvalues --    4.81397   4.81619   4.82586   4.83077   4.83755
 Alpha virt. eigenvalues --    4.83899   4.84359   4.85491   4.85557   4.85942
 Alpha virt. eigenvalues --    4.86178   4.86969   4.87241   4.87797   4.88380
 Alpha virt. eigenvalues --    4.89049   4.89226   4.89909   4.90533   4.90694
 Alpha virt. eigenvalues --    4.91216   4.92431   4.92524   4.92970   4.94142
 Alpha virt. eigenvalues --    4.94358   4.94816   4.95564   4.96023   4.96770
 Alpha virt. eigenvalues --    4.96908   4.97099   4.97546   4.98884   5.00920
 Alpha virt. eigenvalues --    5.01229   5.02309   5.03437   5.04070   5.04625
 Alpha virt. eigenvalues --    5.06188   5.06576   5.08026   5.08888   5.08969
 Alpha virt. eigenvalues --    5.09930   5.10091   5.11023   5.11206   5.11827
 Alpha virt. eigenvalues --    5.13263   5.14260   5.14526   5.14657   5.15209
 Alpha virt. eigenvalues --    5.16230   5.17995   5.18791   5.19037   5.20146
 Alpha virt. eigenvalues --    5.20549   5.20811   5.20875   5.21431   5.22856
 Alpha virt. eigenvalues --    5.23638   5.23897   5.24479   5.24810   5.25696
 Alpha virt. eigenvalues --    5.25879   5.26882   5.26955   5.27657   5.28813
 Alpha virt. eigenvalues --    5.29023   5.30189   5.30858   5.31372   5.31644
 Alpha virt. eigenvalues --    5.32940   5.33374   5.34198   5.34294   5.35256
 Alpha virt. eigenvalues --    5.36008   5.36422   5.36892   5.37690   5.37880
 Alpha virt. eigenvalues --    5.38144   5.38558   5.39056   5.39616   5.40094
 Alpha virt. eigenvalues --    5.40242   5.41012   5.41275   5.41891   5.42082
 Alpha virt. eigenvalues --    5.42927   5.43387   5.44213   5.44402   5.45289
 Alpha virt. eigenvalues --    5.45883   5.46715   5.47468   5.48083   5.48484
 Alpha virt. eigenvalues --    5.49554   5.49868   5.50584   5.50954   5.51228
 Alpha virt. eigenvalues --    5.51954   5.52540   5.53062   5.54467   5.54660
 Alpha virt. eigenvalues --    5.55585   5.56411   5.56559   5.56754   5.57845
 Alpha virt. eigenvalues --    5.58532   5.58977   5.59713   5.60532   5.61765
 Alpha virt. eigenvalues --    5.62572   5.64834   5.68509   5.70709   5.73063
 Alpha virt. eigenvalues --    5.77909   5.78594   5.86767   5.88525   5.91220
 Alpha virt. eigenvalues --    5.92662   5.95829   5.98669   5.99401   6.00947
 Alpha virt. eigenvalues --    6.01834   6.02066   6.03105   6.03446   6.03718
 Alpha virt. eigenvalues --    6.04260   6.05010   6.05537   6.06561   6.06788
 Alpha virt. eigenvalues --    6.07405   6.09172   6.10487   6.10840   6.12342
 Alpha virt. eigenvalues --    6.13277   6.14230   6.16089   6.16948   6.21056
 Alpha virt. eigenvalues --    6.23971   6.26836   6.28937   6.32260   6.33936
 Alpha virt. eigenvalues --    6.34596   6.35497   6.45568   6.57872   6.60019
 Alpha virt. eigenvalues --    6.62739   6.70799   6.78745   6.79451   6.81755
 Alpha virt. eigenvalues --    6.85326   6.87875   6.91816   7.07620   7.21916
 Alpha virt. eigenvalues --    7.34841   8.24911   9.77479   9.93180  10.12819
 Alpha virt. eigenvalues --   10.68884  12.21811  12.32330  12.40800  12.86933
 Alpha virt. eigenvalues --   12.96029  13.02142  13.24579  13.34635  13.50335
 Alpha virt. eigenvalues --   13.54267  13.60560  13.64677  13.74344  13.77794
 Alpha virt. eigenvalues --   13.82612  13.89092  13.91134  13.95452  15.10542
 Alpha virt. eigenvalues --   35.44506  35.73587  35.74704  46.34840
          Condensed to atoms (all electrons):
 Mulliken charges:
               1
     1  N   -0.125534
     2  C    0.090464
     3  C    0.036170
     4  C   -0.160842
     5  C   -0.127598
     6  C   -0.141985
     7  C   -0.093723
     8  H    0.161443
     9  H    0.162987
    10  H    0.161898
    11  C   -0.221423
    12  N   -0.203924
    13  H    0.125192
    14  H    0.168643
    15  H    0.170571
    16  P    0.149156
    17  H    0.145725
    18  Ru   0.497752
    19  C   -0.099128
    20  C   -0.010676
    21  C   -0.126840
    22  C   -0.002235
    23  C   -0.359897
    24  C   -0.341742
    25  C   -0.332336
    26  C   -0.354691
    27  C   -0.334719
    28  C   -0.347186
    29  H   -0.252047
    30  H    0.143081
    31  C   -0.324107
    32  H    0.126536
    33  H    0.145757
    34  C   -0.337143
    35  H    0.116681
    36  C   -0.148257
    37  O   -0.726387
    38  H    0.255131
    39  H    0.125075
    40  H    0.113422
    41  H    0.119082
    42  H    0.115631
    43  H    0.109054
    44  H    0.110006
    45  H    0.109370
    46  H    0.116986
    47  H    0.129381
    48  H    0.106871
    49  H    0.120135
    50  H    0.120966
    51  H    0.107306
    52  H    0.123443
    53  H    0.114550
    54  H    0.118997
    55  H    0.107393
    56  H    0.116351
    57  H    0.119409
    58  H    0.139085
    59  H    0.107247
    60  H    0.110824
    61  H    0.144971
    62  H    0.116389
    63  O   -0.306712
 Sum of Mulliken charges =  -0.00000
 Mulliken charges with hydrogens summed into heavy atoms:
               1
     1  N   -0.125534
     2  C    0.090464
     3  C    0.036170
     4  C    0.000601
     5  C    0.035389
     6  C    0.019914
     7  C    0.200112
    11  C    0.094873
    12  N   -0.203924
    16  P    0.149156
    18  Ru   0.245705
    19  C    0.170489
    20  C   -0.010676
    21  C    0.135598
    22  C   -0.002235
    23  C   -0.004160
    24  C    0.006230
    25  C    0.012962
    26  C    0.017493
    27  C    0.008022
    28  C    0.018555
    31  C    0.010585
    34  C    0.020436
    36  C   -0.148257
    37  O   -0.471256
    63  O   -0.306712
 Electronic spatial extent (au):  <R**2>=           9461.3844
 Charge=             -0.0000 electrons
 Dipole moment (field-independent basis, Debye):
    X=             -1.2597    Y=              8.5425    Z=              1.5501  Tot=              8.7729
 Quadrupole moment (field-independent basis, Debye-Ang):
   XX=           -147.3749   YY=           -174.8906   ZZ=           -192.0114
   XY=              0.8119   XZ=             -8.0050   YZ=              2.4443
 Traceless Quadrupole moment (field-independent basis, Debye-Ang):
   XX=             24.0507   YY=             -3.4649   ZZ=            -20.5858
   XY=              0.8119   XZ=             -8.0050   YZ=              2.4443
 Octapole moment (field-independent basis, Debye-Ang**2):
  XXX=            -73.5130  YYY=            109.6197  ZZZ=             17.4983  XYY=            -47.0344
  XXY=             -0.3252  XXZ=             13.6119  XZZ=             -0.5863  YZZ=            -15.7576
  YYZ=            -29.2243  XYZ=             -1.3174
 Hexadecapole moment (field-independent basis, Debye-Ang**3):
 XXXX=          -6761.7682 YYYY=          -3679.1974 ZZZZ=          -1980.1986 XXXY=            -27.5806
 XXXZ=            -57.8903 YYYX=            -53.7565 YYYZ=            -60.8157 ZZZX=            -10.4221
 ZZZY=             24.4396 XXYY=          -1696.0229 XXZZ=          -1464.6448 YYZZ=           -967.3244
 XXYZ=             27.3103 YYXZ=            -34.5287 ZZXY=             37.9793
 N-N= 3.252124800098D+03 E-N=-9.942245301040D+03  KE= 1.410284236080D+03
 1\1\GINC-NODE155\SP\RPBE1PBE\GenECP\C20H37N2O2P1Ru1\JS1212\11-Nov-2018
 \0\\# nmr genecp pbe1pbe EmpiricalDispersion=GD3BJ scrf=(SMD,solvent=w
 ater) geom=allcheck\\Title Card Required\\0,1\N,0,-0.7939372714,1.4223
 725821,-0.0331774301\C,0,-2.0069811701,1.8457005099,0.344644741\C,0,0.
 0955503074,2.2520717997,-0.6015751566\C,0,-2.3930296391,3.1696287905,0
 .1742555401\C,0,-1.4771747833,4.0571504883,-0.3880232311\C,0,-0.222747
 6723,3.5990006074,-0.77767886\C,0,-2.8308880779,0.7837489969,1.0039710
 102\H,0,-3.3871307209,3.4969901565,0.4802248721\H,0,-1.7451500279,5.10
 58631395,-0.5296985242\H,0,0.5051949813,4.2733533482,-1.2297873908\C,0
 ,1.3856015865,1.6328648322,-1.0399609473\N,0,-2.6753317314,-0.52350747
 91,0.3341385024\H,0,-3.8894234397,1.0874326117,1.0734131669\H,0,-2.445
 9661554,0.6560755003,2.0288125797\H,0,1.2077614689,1.2450548577,-2.058
 6107541\P,0,1.7293646219,0.067065238,-0.0764247359\H,0,2.2083076187,2.
 36178162,-1.0591354344\Ru,0,-0.4058509953,-0.6358704491,0.1224641673\C
 ,0,-3.3194777926,-0.5154976241,-1.001027499\C,0,2.9842252617,-0.844848
 5227,-1.1759672409\C,0,-3.242113421,-1.5496807646,1.2390148458\C,0,2.5
 735599458,0.6514615299,1.5271766665\C,0,2.1869749652,-1.5753390011,-2.
 2613946785\C,0,3.7438332517,-1.8936821427,-0.3614174163\C,0,3.96565942
 03,0.1120288863,-1.8582083664\C,0,1.6736126426,1.7317041012,2.13686444
 55\C,0,3.9663681116,1.2456636327,1.3247080563\C,0,2.6253000693,-0.5230
 432872,2.5081899426\H,0,-0.3831263868,-0.5654726032,1.7442942789\H,0,-
 2.7241021658,0.1618833762,-1.6297839498\C,0,-4.8053769685,-0.195480523
 5,-1.0358097866\H,0,-3.1351340756,-1.5063344356,-1.4345935398\H,0,-2.5
 972584848,-1.5475380696,2.1294730312\C,0,-3.3037485543,-2.9427475615,0
 .6511004484\H,0,-4.2559099715,-1.2380743657,1.5601136517\C,0,0.0218192
 035,-2.3972431089,0.3289517229\O,0,-0.6258336225,-0.3575889911,-2.0109
 106546\H,0,-0.6813150048,-1.2277124498,-2.4213112733\H,0,-2.3322854441
 ,-3.2418038053,0.2348267404\H,0,-4.0660289267,-3.0356213948,-0.1362243
 834\H,0,-3.5638993289,-3.6556142029,1.4473090098\H,0,-5.1605876945,-0.
 299471729,-2.0721652574\H,0,-5.0296492058,0.8367739419,-0.7262955094\H
 ,0,-5.4086272697,-0.8758916462,-0.4142347514\H,0,2.8931214479,-1.97167
 36121,-3.0102599736\H,0,1.451690848,-0.9197193336,-2.7491238047\H,0,1.
 6291756929,-2.4195305405,-1.833596823\H,0,4.3265843515,-2.5219458188,-
 1.0556864728\H,0,3.0565896995,-2.5569264702,0.1846658702\H,0,4.4513114
 018,-1.4530384971,0.3544448879\H,0,4.6880111603,-0.4812666399,-2.44368
 23225\H,0,4.5389371171,0.7258382929,-1.1522379016\H,0,3.4533843809,0.7
 818767884,-2.564125339\H,0,4.7008544186,0.5040428802,0.9833365129\H,0,
 4.3285381256,1.6435210595,2.2877573866\H,0,3.9609345578,2.0832607582,0
 .6097785334\H,0,3.3094785736,-1.3173749803,2.1837225091\H,0,1.62309436
 38,-0.9577528191,2.6356177035\H,0,2.9768372202,-0.1588067459,3.4881698
 472\H,0,2.0763385862,2.0086766526,3.1252622247\H,0,0.6481012047,1.3596
 452546,2.2714256179\H,0,1.6439876905,2.6465961766,1.5257929084\O,0,0.3
 501517054,-3.5048387945,0.4953479872\\Version=ES64L-G16RevA.03\State=1
 -A\HF=-1479.8104732\RMSD=1.565e-09\Dipole=-0.4818642,3.3605404,0.62250
 57\Quadrupole=17.8676056,-2.5936265,-15.2739791,0.5496839,-5.9921176,1
 .8842758\PG=C01 [X(C20H37N2O2P1Ru1)]\\@


 ALL MY ATTEMPTS TO ADAPT THE THEORETICAL FOUNDATIONS OF PHYSICS
 TO THESE NEW NOTIONS FAILED COMPLETELY. IT WAS AS IF THE GROUND HAD
 BEEN PULLED OUT FROM UNDER ONE WITH NO FIRM FOUNDATION TO BE SEEN ANYWHERE,
 UPON WHICH ONE COULD HAVE BUILT.  -- A.EINSTEIN
 Job cpu time:       0 days 22 hours 52 minutes 54.5 seconds.
 Elapsed time:       0 days  1 hours 30 minutes 52.3 seconds.
 File lengths (MBytes):  RWF=   1229 Int=      0 D2E=      0 Chk=    154 Scr=      1
 Normal termination of Gaussian 16 at Sun Nov 11 15:47:38 2018.
