 Entering Gaussian System, Link 0=g16
 Initial command:
 /cluster/chemistry/gaussian/g16/l1.exe "/scratch/js1212.1306235/scratch/Gau-16387.inp" -scrdir="/scratch/js1212.1306235/scratch/"
 Entering Link 1 = /cluster/chemistry/gaussian/g16/l1.exe PID=     16388.
  
 Copyright (c) 1988,1990,1992,1993,1995,1998,2003,2009,2016,
            Gaussian, Inc.  All Rights Reserved.
  
 This is part of the Gaussian(R) 16 program.  It is based on
 the Gaussian(R) 09 system (copyright 2009, Gaussian, Inc.),
 the Gaussian(R) 03 system (copyright 2003, Gaussian, Inc.),
 the Gaussian(R) 98 system (copyright 1998, Gaussian, Inc.),
 the Gaussian(R) 94 system (copyright 1995, Gaussian, Inc.),
 the Gaussian 92(TM) system (copyright 1992, Gaussian, Inc.),
 the Gaussian 90(TM) system (copyright 1990, Gaussian, Inc.),
 the Gaussian 88(TM) system (copyright 1988, Gaussian, Inc.),
 the Gaussian 86(TM) system (copyright 1986, Carnegie Mellon
 University), and the Gaussian 82(TM) system (copyright 1983,
 Carnegie Mellon University). Gaussian is a federally registered
 trademark of Gaussian, Inc.
  
 This software contains proprietary and confidential information,
 including trade secrets, belonging to Gaussian, Inc.
  
 This software is provided under written license and may be
 used, copied, transmitted, or stored only in accord with that
 written license.
  
 The following legend is applicable only to US Government
 contracts under FAR:
  
                    RESTRICTED RIGHTS LEGEND
  
 Use, reproduction and disclosure by the US Government is
 subject to restrictions as set forth in subparagraphs (a)
 and (c) of the Commercial Computer Software - Restricted
 Rights clause in FAR 52.227-19.
  
 Gaussian, Inc.
 340 Quinnipiac St., Bldg. 40, Wallingford CT 06492
  
  
 ---------------------------------------------------------------
 Warning -- This program may not be used in any manner that
 competes with the business of Gaussian, Inc. or will provide
 assistance to any competitor of Gaussian, Inc.  The licensee
 of this program is prohibited from giving any competitor of
 Gaussian, Inc. access to this program.  By using this program,
 the user acknowledges that Gaussian, Inc. is engaged in the
 business of creating and licensing software in the field of
 computational chemistry and represents and warrants to the
 licensee that it is not a competitor of Gaussian, Inc. and that
 it will not use this program in any manner prohibited above.
 ---------------------------------------------------------------
  

 Cite this work as:
 Gaussian 16, Revision A.03,
 M. J. Frisch, G. W. Trucks, H. B. Schlegel, G. E. Scuseria, 
 M. A. Robb, J. R. Cheeseman, G. Scalmani, V. Barone, 
 G. A. Petersson, H. Nakatsuji, X. Li, M. Caricato, A. V. Marenich, 
 J. Bloino, B. G. Janesko, R. Gomperts, B. Mennucci, H. P. Hratchian, 
 J. V. Ortiz, A. F. Izmaylov, J. L. Sonnenberg, D. Williams-Young, 
 F. Ding, F. Lipparini, F. Egidi, J. Goings, B. Peng, A. Petrone, 
 T. Henderson, D. Ranasinghe, V. G. Zakrzewski, J. Gao, N. Rega, 
 G. Zheng, W. Liang, M. Hada, M. Ehara, K. Toyota, R. Fukuda, 
 J. Hasegawa, M. Ishida, T. Nakajima, Y. Honda, O. Kitao, H. Nakai, 
 T. Vreven, K. Throssell, J. A. Montgomery, Jr., J. E. Peralta, 
 F. Ogliaro, M. J. Bearpark, J. J. Heyd, E. N. Brothers, K. N. Kudin, 
 V. N. Staroverov, T. A. Keith, R. Kobayashi, J. Normand, 
 K. Raghavachari, A. P. Rendell, J. C. Burant, S. S. Iyengar, 
 J. Tomasi, M. Cossi, J. M. Millam, M. Klene, C. Adamo, R. Cammi, 
 J. W. Ochterski, R. L. Martin, K. Morokuma, O. Farkas, 
 J. B. Foresman, and D. J. Fox, Gaussian, Inc., Wallingford CT, 2016.
 
 ******************************************
 Gaussian 16:  ES64L-G16RevA.03 25-Dec-2016
                21-May-2021 
 ******************************************
 %rwf=/scratch/js1212.1306235/2-Trans-A-GP-TD-SMD.rwf
 %nosave
 %nprocshared=20
 Will use up to   20 processors via shared memory.
 %mem=3000MB
 %oldchk=/data/js1212/181110_g16/2-Full-Trans-A-GPOF.chk
 %chk=/scratch/js1212.1306235/2-Trans-A-GP-TD-SMD.chk
 Copying data from "/data/js1212/181110_g16/2-Full-Trans-A-GPOF.chk" to current chk file "/scratch/js1212.1306235/2-Trans-A-GP-TD-SMD.chk"
 IOpt=  2 FromEx=T IUOpen= 4 IOptOp= 5 NList=   0 IFRang= 0 IUIn= 4 IUOut= 2.
 ----------------------------------------------------------------------
 # genecp pbe1pbe EmpiricalDispersion=GD3BJ scrf=(SMD,solvent=water) td
 =nstates=25 geom=allcheck
 ----------------------------------------------------------------------
 1/29=7,38=1,172=1/1;
 2/12=2,40=1/2;
 3/5=7,11=9,14=-4,16=1,17=8,25=1,30=1,70=32201,72=1,74=-13,124=41/1,2,3,8;
 4//1;
 5/5=2,38=5,53=1/2;
 8/6=1,10=1,108=25/1;
 9/41=25,42=1,70=2/14;
 6/7=2,8=2,9=2,10=2/1;
 99/5=1,9=1/99;
 Structure from the checkpoint file:  "/scratch/js1212.1306235/2-Trans-A-GP-TD-SMD.chk"
 -------------------
 Title Card Required
 -------------------
 Charge =  0 Multiplicity = 1
 Redundant internal coordinates found in file.  (old form).
 N,0,-0.7939372714,1.4223725821,-0.0331774301
 C,0,-2.0069811701,1.8457005099,0.344644741
 C,0,0.0955503074,2.2520717997,-0.6015751566
 C,0,-2.3930296391,3.1696287905,0.1742555401
 C,0,-1.4771747833,4.0571504883,-0.3880232311
 C,0,-0.2227476723,3.5990006074,-0.77767886
 C,0,-2.8308880779,0.7837489969,1.0039710102
 H,0,-3.3871307209,3.4969901565,0.4802248721
 H,0,-1.7451500279,5.1058631395,-0.5296985242
 H,0,0.5051949813,4.2733533482,-1.2297873908
 C,0,1.3856015865,1.6328648322,-1.0399609473
 N,0,-2.6753317314,-0.5235074791,0.3341385024
 H,0,-3.8894234397,1.0874326117,1.0734131669
 H,0,-2.4459661554,0.6560755003,2.0288125797
 H,0,1.2077614689,1.2450548577,-2.0586107541
 P,0,1.7293646219,0.067065238,-0.0764247359
 H,0,2.2083076187,2.36178162,-1.0591354344
 Ru,0,-0.4058509953,-0.6358704491,0.1224641673
 C,0,-3.3194777926,-0.5154976241,-1.001027499
 C,0,2.9842252617,-0.8448485227,-1.1759672409
 C,0,-3.242113421,-1.5496807646,1.2390148458
 C,0,2.5735599458,0.6514615299,1.5271766665
 C,0,2.1869749652,-1.5753390011,-2.2613946785
 C,0,3.7438332517,-1.8936821427,-0.3614174163
 C,0,3.9656594203,0.1120288863,-1.8582083664
 C,0,1.6736126426,1.7317041012,2.1368644455
 C,0,3.9663681116,1.2456636327,1.3247080563
 C,0,2.6253000693,-0.5230432872,2.5081899426
 H,0,-0.3831263868,-0.5654726032,1.7442942789
 H,0,-2.7241021658,0.1618833762,-1.6297839498
 C,0,-4.8053769685,-0.1954805235,-1.0358097866
 H,0,-3.1351340756,-1.5063344356,-1.4345935398
 H,0,-2.5972584848,-1.5475380696,2.1294730312
 C,0,-3.3037485543,-2.9427475615,0.6511004484
 H,0,-4.2559099715,-1.2380743657,1.5601136517
 C,0,0.0218192035,-2.3972431089,0.3289517229
 O,0,-0.6258336225,-0.3575889911,-2.0109106546
 H,0,-0.6813150048,-1.2277124498,-2.4213112733
 H,0,-2.3322854441,-3.2418038053,0.2348267404
 H,0,-4.0660289267,-3.0356213948,-0.1362243834
 H,0,-3.5638993289,-3.6556142029,1.4473090098
 H,0,-5.1605876945,-0.299471729,-2.0721652574
 H,0,-5.0296492058,0.8367739419,-0.7262955094
 H,0,-5.4086272697,-0.8758916462,-0.4142347514
 H,0,2.8931214479,-1.9716736121,-3.0102599736
 H,0,1.451690848,-0.9197193336,-2.7491238047
 H,0,1.6291756929,-2.4195305405,-1.833596823
 H,0,4.3265843515,-2.5219458188,-1.0556864728
 H,0,3.0565896995,-2.5569264702,0.1846658702
 H,0,4.4513114018,-1.4530384971,0.3544448879
 H,0,4.6880111603,-0.4812666399,-2.4436823225
 H,0,4.5389371171,0.7258382929,-1.1522379016
 H,0,3.4533843809,0.7818767884,-2.564125339
 H,0,4.7008544186,0.5040428802,0.9833365129
 H,0,4.3285381256,1.6435210595,2.2877573866
 H,0,3.9609345578,2.0832607582,0.6097785334
 H,0,3.3094785736,-1.3173749803,2.1837225091
 H,0,1.6230943638,-0.9577528191,2.6356177035
 H,0,2.9768372202,-0.1588067459,3.4881698472
 H,0,2.0763385862,2.0086766526,3.1252622247
 H,0,0.6481012047,1.3596452546,2.2714256179
 H,0,1.6439876905,2.6465961766,1.5257929084
 O,0,0.3501517054,-3.5048387945,0.4953479872
 Recover connectivity data from disk.
                           ----------------------------
                           !    Current Parameters    !
                           ! (Angstroms and Degrees)  !
 --------------------------                            --------------------------
 ! Name  Definition              Value                                          !
 --------------------------------------------------------------------------------
 ! R1    R(1,2)                  1.3392                                         !
 ! R2    R(1,3)                  1.3426                                         !
 ! R3    R(1,18)                 2.1003                                         !
 ! R4    R(2,4)                  1.3896                                         !
 ! R5    R(2,7)                  1.4971                                         !
 ! R6    R(3,6)                  1.3952                                         !
 ! R7    R(3,11)                 1.4966                                         !
 ! R8    R(4,5)                  1.3938                                         !
 ! R9    R(4,8)                  1.0904                                         !
 ! R10   R(5,6)                  1.3912                                         !
 ! R11   R(5,9)                  1.0916                                         !
 ! R12   R(6,10)                 1.0904                                         !
 ! R13   R(7,12)                 1.4771                                         !
 ! R14   R(7,13)                 1.1034                                         !
 ! R15   R(7,14)                 1.1022                                         !
 ! R16   R(11,15)                1.1044                                         !
 ! R17   R(11,16)                1.8704                                         !
 ! R18   R(11,17)                1.0993                                         !
 ! R19   R(12,19)                1.4824                                         !
 ! R20   R(12,21)                1.4809                                         !
 ! R21   R(16,18)                2.2567                                         !
 ! R22   R(16,20)                1.9014                                         !
 ! R23   R(16,22)                1.9041                                         !
 ! R24   R(18,29)                1.6235                                         !
 ! R25   R(18,36)                1.8243                                         !
 ! R26   R(18,37)                2.1627                                         !
 ! R27   R(19,30)                1.0994                                         !
 ! R28   R(19,31)                1.5204                                         !
 ! R29   R(19,32)                1.0971                                         !
 ! R30   R(20,23)                1.5321                                         !
 ! R31   R(20,24)                1.5299                                         !
 ! R32   R(20,25)                1.5311                                         !
 ! R33   R(21,33)                1.0994                                         !
 ! R34   R(21,34)                1.5133                                         !
 ! R35   R(21,35)                1.1081                                         !
 ! R36   R(22,26)                1.5325                                         !
 ! R37   R(22,27)                1.5277                                         !
 ! R38   R(22,28)                1.5312                                         !
 ! R39   R(23,45)                1.103                                          !
 ! R40   R(23,46)                1.0993                                         !
 ! R41   R(23,47)                1.0985                                         !
 ! R42   R(24,48)                1.1029                                         !
 ! R43   R(24,49)                1.1002                                         !
 ! R44   R(24,50)                1.0987                                         !
 ! R45   R(25,51)                1.103                                          !
 ! R46   R(25,52)                1.0972                                         !
 ! R47   R(25,53)                1.0997                                         !
 ! R48   R(26,60)                1.1026                                         !
 ! R49   R(26,61)                1.0992                                         !
 ! R50   R(26,62)                1.1006                                         !
 ! R51   R(27,54)                1.0982                                         !
 ! R52   R(27,55)                1.1031                                         !
 ! R53   R(27,56)                1.1012                                         !
 ! R54   R(28,57)                1.0974                                         !
 ! R55   R(28,58)                1.0998                                         !
 ! R56   R(28,59)                1.103                                          !
 ! R57   R(31,42)                1.1005                                         !
 ! R58   R(31,43)                1.1007                                         !
 ! R59   R(31,44)                1.1015                                         !
 ! R60   R(34,39)                1.0984                                         !
 ! R61   R(34,40)                1.0998                                         !
 ! R62   R(34,41)                1.0999                                         !
 ! R63   R(36,63)                1.1672                                         !
 ! R64   R(37,38)                0.9637                                         !
 ! A1    A(2,1,3)              121.6134                                         !
 ! A2    A(2,1,18)             117.1451                                         !
 ! A3    A(3,1,18)             120.9675                                         !
 ! A4    A(1,2,4)              121.214                                          !
 ! A5    A(1,2,7)              113.4857                                         !
 ! A6    A(4,2,7)              125.2364                                         !
 ! A7    A(1,3,6)              119.9262                                         !
 ! A8    A(1,3,11)             116.0649                                         !
 ! A9    A(6,3,11)             123.9943                                         !
 ! A10   A(2,4,5)              118.2688                                         !
 ! A11   A(2,4,8)              120.3255                                         !
 ! A12   A(5,4,8)              121.405                                          !
 ! A13   A(4,5,6)              119.7227                                         !
 ! A14   A(4,5,9)              120.1842                                         !
 ! A15   A(6,5,9)              120.0913                                         !
 ! A16   A(3,6,5)              119.229                                          !
 ! A17   A(3,6,10)             119.8062                                         !
 ! A18   A(5,6,10)             120.9588                                         !
 ! A19   A(2,7,12)             111.7225                                         !
 ! A20   A(2,7,13)             111.1273                                         !
 ! A21   A(2,7,14)             107.4262                                         !
 ! A22   A(12,7,13)            111.9096                                         !
 ! A23   A(12,7,14)            106.4016                                         !
 ! A24   A(13,7,14)            107.9627                                         !
 ! A25   A(3,11,15)            106.061                                          !
 ! A26   A(3,11,16)            110.7257                                         !
 ! A27   A(3,11,17)            112.0774                                         !
 ! A28   A(15,11,16)           102.1686                                         !
 ! A29   A(15,11,17)           109.7098                                         !
 ! A30   A(16,11,17)           115.247                                          !
 ! A31   A(7,12,19)            110.9704                                         !
 ! A32   A(7,12,21)            107.2096                                         !
 ! A33   A(19,12,21)           112.8156                                         !
 ! A34   A(11,16,18)            97.6006                                         !
 ! A35   A(11,16,20)           102.9968                                         !
 ! A36   A(11,16,22)           104.9753                                         !
 ! A37   A(18,16,20)           121.7364                                         !
 ! A38   A(18,16,22)           116.1583                                         !
 ! A39   A(20,16,22)           109.9751                                         !
 ! A40   A(1,18,16)             82.1285                                         !
 ! A41   A(1,18,29)             91.9554                                         !
 ! A42   A(1,18,37)             77.4086                                         !
 ! A43   A(16,18,29)            93.5139                                         !
 ! A44   A(16,18,36)            95.1009                                         !
 ! A45   A(16,18,37)            88.2363                                         !
 ! A46   A(29,18,36)            85.7283                                         !
 ! A47   A(36,18,37)           105.0547                                         !
 ! A48   A(12,19,30)           106.446                                          !
 ! A49   A(12,19,31)           116.5133                                         !
 ! A50   A(12,19,32)           106.1426                                         !
 ! A51   A(30,19,31)           112.7369                                         !
 ! A52   A(30,19,32)           103.8537                                         !
 ! A53   A(31,19,32)           110.1979                                         !
 ! A54   A(16,20,23)           107.1535                                         !
 ! A55   A(16,20,24)           110.4012                                         !
 ! A56   A(16,20,25)           112.3947                                         !
 ! A57   A(23,20,24)           107.9806                                         !
 ! A58   A(23,20,25)           108.4118                                         !
 ! A59   A(24,20,25)           110.3301                                         !
 ! A60   A(12,21,33)           105.608                                          !
 ! A61   A(12,21,34)           114.5878                                         !
 ! A62   A(12,21,35)           109.4111                                         !
 ! A63   A(33,21,34)           109.8974                                         !
 ! A64   A(33,21,35)           107.5394                                         !
 ! A65   A(34,21,35)           109.5218                                         !
 ! A66   A(16,22,26)           106.9198                                         !
 ! A67   A(16,22,27)           114.3275                                         !
 ! A68   A(16,22,28)           108.6105                                         !
 ! A69   A(26,22,27)           108.2968                                         !
 ! A70   A(26,22,28)           107.7968                                         !
 ! A71   A(27,22,28)           110.6369                                         !
 ! A72   A(20,23,45)           108.6138                                         !
 ! A73   A(20,23,46)           112.2119                                         !
 ! A74   A(20,23,47)           110.7765                                         !
 ! A75   A(45,23,46)           109.9569                                         !
 ! A76   A(45,23,47)           108.261                                          !
 ! A77   A(46,23,47)           106.9461                                         !
 ! A78   A(20,24,48)           108.5255                                         !
 ! A79   A(20,24,49)           111.556                                          !
 ! A80   A(20,24,50)           113.0583                                         !
 ! A81   A(48,24,49)           107.4042                                         !
 ! A82   A(48,24,50)           107.3604                                         !
 ! A83   A(49,24,50)           108.6997                                         !
 ! A84   A(20,25,51)           108.672                                          !
 ! A85   A(20,25,52)           113.4433                                         !
 ! A86   A(20,25,53)           111.598                                          !
 ! A87   A(51,25,52)           107.4744                                         !
 ! A88   A(51,25,53)           106.9762                                         !
 ! A89   A(52,25,53)           108.4003                                         !
 ! A90   A(22,26,60)           108.6143                                         !
 ! A91   A(22,26,61)           110.9768                                         !
 ! A92   A(22,26,62)           112.3877                                         !
 ! A93   A(60,26,61)           108.4239                                         !
 ! A94   A(60,26,62)           107.3805                                         !
 ! A95   A(61,26,62)           108.9189                                         !
 ! A96   A(22,27,54)           112.8479                                         !
 ! A97   A(22,27,55)           108.8983                                         !
 ! A98   A(22,27,56)           112.1708                                         !
 ! A99   A(54,27,55)           107.1788                                         !
 ! A100  A(54,27,56)           108.3691                                         !
 ! A101  A(55,27,56)           107.1015                                         !
 ! A102  A(22,28,57)           112.7583                                         !
 ! A103  A(22,28,58)           110.2807                                         !
 ! A104  A(22,28,59)           109.0687                                         !
 ! A105  A(57,28,58)           108.4374                                         !
 ! A106  A(57,28,59)           107.6385                                         !
 ! A107  A(58,28,59)           108.5422                                         !
 ! A108  A(19,31,42)           108.4888                                         !
 ! A109  A(19,31,43)           112.9596                                         !
 ! A110  A(19,31,44)           113.0995                                         !
 ! A111  A(42,31,43)           106.7177                                         !
 ! A112  A(42,31,44)           107.2347                                         !
 ! A113  A(43,31,44)           108.0008                                         !
 ! A114  A(21,34,39)           111.2138                                         !
 ! A115  A(21,34,40)           112.5867                                         !
 ! A116  A(21,34,41)           108.9671                                         !
 ! A117  A(39,34,40)           108.5851                                         !
 ! A118  A(39,34,41)           107.8827                                         !
 ! A119  A(40,34,41)           107.4304                                         !
 ! A120  A(18,37,38)           108.0462                                         !
 ! A121  L(1,18,36,16,-1)      177.2294                                         !
 ! A122  L(29,18,37,1,-1)      169.364                                          !
 ! A123  L(18,36,63,20,-1)     178.0583                                         !
 ! A124  L(1,18,36,16,-2)      177.5091                                         !
 ! A125  L(29,18,37,1,-2)      183.2238                                         !
 ! A126  L(18,36,63,20,-2)     177.233                                          !
 ! D1    D(3,1,2,4)             -0.5778                                         !
 ! D2    D(3,1,2,7)           -177.8191                                         !
 ! D3    D(18,1,2,4)          -174.618                                          !
 ! D4    D(18,1,2,7)             8.1407                                         !
 ! D5    D(2,1,3,6)              1.7368                                         !
 ! D6    D(2,1,3,11)          -176.9281                                         !
 ! D7    D(18,1,3,6)           175.551                                          !
 ! D8    D(18,1,3,11)           -3.1139                                         !
 ! D9    D(2,1,18,16)         -163.6716                                         !
 ! D10   D(2,1,18,29)          -70.3931                                         !
 ! D11   D(2,1,18,37)          106.3831                                         !
 ! D12   D(3,1,18,16)           22.2474                                         !
 ! D13   D(3,1,18,29)          115.5259                                         !
 ! D14   D(3,1,18,37)          -67.698                                          !
 ! D15   D(1,2,4,5)             -0.7612                                         !
 ! D16   D(1,2,4,8)            179.5343                                         !
 ! D17   D(7,2,4,5)            176.1408                                         !
 ! D18   D(7,2,4,8)             -3.5637                                         !
 ! D19   D(1,2,7,12)           -40.2193                                         !
 ! D20   D(1,2,7,13)          -165.9913                                         !
 ! D21   D(1,2,7,14)            76.1162                                         !
 ! D22   D(4,2,7,12)           142.6694                                         !
 ! D23   D(4,2,7,13)            16.8974                                         !
 ! D24   D(4,2,7,14)          -100.9952                                         !
 ! D25   D(1,3,6,5)             -1.532                                          !
 ! D26   D(1,3,6,10)           179.3464                                         !
 ! D27   D(11,3,6,5)           177.0214                                         !
 ! D28   D(11,3,6,10)           -2.1002                                         !
 ! D29   D(1,3,11,15)           86.3627                                         !
 ! D30   D(1,3,11,16)          -23.7253                                         !
 ! D31   D(1,3,11,17)         -153.935                                          !
 ! D32   D(6,3,11,15)          -92.2417                                         !
 ! D33   D(6,3,11,16)          157.6704                                         !
 ! D34   D(6,3,11,17)           27.4607                                         !
 ! D35   D(2,4,5,6)              0.912                                          !
 ! D36   D(2,4,5,9)           -179.5726                                         !
 ! D37   D(8,4,5,6)           -179.3868                                         !
 ! D38   D(8,4,5,9)              0.1285                                         !
 ! D39   D(4,5,6,3)              0.205                                          !
 ! D40   D(4,5,6,10)           179.3162                                         !
 ! D41   D(9,5,6,3)           -179.3108                                         !
 ! D42   D(9,5,6,10)            -0.1997                                         !
 ! D43   D(2,7,12,19)          -70.2021                                         !
 ! D44   D(2,7,12,21)          166.194                                          !
 ! D45   D(13,7,12,19)          55.1384                                         !
 ! D46   D(13,7,12,21)         -68.4655                                         !
 ! D47   D(14,7,12,19)         172.8415                                         !
 ! D48   D(14,7,12,21)          49.2376                                         !
 ! D49   D(3,11,16,18)          35.0096                                         !
 ! D50   D(3,11,16,20)         160.139                                          !
 ! D51   D(3,11,16,22)         -84.732                                          !
 ! D52   D(15,11,16,18)        -77.5841                                         !
 ! D53   D(15,11,16,20)         47.5454                                         !
 ! D54   D(15,11,16,22)        162.6743                                         !
 ! D55   D(17,11,16,18)        163.5259                                         !
 ! D56   D(17,11,16,20)        -71.3446                                         !
 ! D57   D(17,11,16,22)         43.7843                                         !
 ! D58   D(7,12,19,30)          68.3615                                         !
 ! D59   D(7,12,19,31)         -58.3375                                         !
 ! D60   D(7,12,19,32)         178.5644                                         !
 ! D61   D(21,12,19,30)       -171.308                                          !
 ! D62   D(21,12,19,31)         61.9929                                         !
 ! D63   D(21,12,19,32)        -61.1052                                         !
 ! D64   D(7,12,21,33)         -65.135                                          !
 ! D65   D(7,12,21,34)         173.7719                                         !
 ! D66   D(7,12,21,35)          50.3449                                         !
 ! D67   D(19,12,21,33)        172.4015                                         !
 ! D68   D(19,12,21,34)         51.3084                                         !
 ! D69   D(19,12,21,35)        -72.1186                                         !
 ! D70   D(11,16,18,1)         -27.0557                                         !
 ! D71   D(11,16,18,29)       -118.5468                                         !
 ! D72   D(11,16,18,36)        155.4352                                         !
 ! D73   D(11,16,18,37)         50.4749                                         !
 ! D74   D(20,16,18,1)        -137.5009                                         !
 ! D75   D(20,16,18,29)        131.0081                                         !
 ! D76   D(20,16,18,36)         44.99                                           !
 ! D77   D(20,16,18,37)        -59.9702                                         !
 ! D78   D(22,16,18,1)          83.7977                                         !
 ! D79   D(22,16,18,29)         -7.6934                                         !
 ! D80   D(22,16,18,36)        -93.7114                                         !
 ! D81   D(22,16,18,37)        161.3284                                         !
 ! D82   D(11,16,20,23)        -82.1112                                         !
 ! D83   D(11,16,20,24)        160.535                                          !
 ! D84   D(11,16,20,25)         36.8815                                         !
 ! D85   D(18,16,20,23)         25.4883                                         !
 ! D86   D(18,16,20,24)        -91.8655                                         !
 ! D87   D(18,16,20,25)        144.481                                          !
 ! D88   D(22,16,20,23)        166.4157                                         !
 ! D89   D(22,16,20,24)         49.0618                                         !
 ! D90   D(22,16,20,25)        -74.5916                                         !
 ! D91   D(11,16,22,26)         52.0564                                         !
 ! D92   D(11,16,22,27)        -67.7881                                         !
 ! D93   D(11,16,22,28)        168.1307                                         !
 ! D94   D(18,16,22,26)        -54.4377                                         !
 ! D95   D(18,16,22,27)       -174.2822                                         !
 ! D96   D(18,16,22,28)         61.6365                                         !
 ! D97   D(20,16,22,26)        162.234                                          !
 ! D98   D(20,16,22,27)         42.3894                                         !
 ! D99   D(20,16,22,28)        -81.6918                                         !
 ! D100  D(1,18,37,38)        -168.7797                                         !
 ! D101  D(16,18,37,38)        108.8931                                         !
 ! D102  D(36,18,37,38)         14.0842                                         !
 ! D103  D(12,19,31,42)       -175.7946                                         !
 ! D104  D(12,19,31,43)         66.102                                          !
 ! D105  D(12,19,31,44)        -56.9613                                         !
 ! D106  D(30,19,31,42)         60.6939                                         !
 ! D107  D(30,19,31,43)        -57.4095                                         !
 ! D108  D(30,19,31,44)        179.5272                                         !
 ! D109  D(32,19,31,42)        -54.8244                                         !
 ! D110  D(32,19,31,43)       -172.9278                                         !
 ! D111  D(32,19,31,44)         64.0089                                         !
 ! D112  D(16,20,23,45)        170.5959                                         !
 ! D113  D(16,20,23,46)         48.8233                                         !
 ! D114  D(16,20,23,47)        -70.6259                                         !
 ! D115  D(24,20,23,45)        -70.475                                          !
 ! D116  D(24,20,23,46)        167.7524                                         !
 ! D117  D(24,20,23,47)         48.3032                                         !
 ! D118  D(25,20,23,45)         49.0635                                         !
 ! D119  D(25,20,23,46)        -72.709                                          !
 ! D120  D(25,20,23,47)        167.8417                                         !
 ! D121  D(16,20,24,48)        170.0051                                         !
 ! D122  D(16,20,24,49)         51.8699                                         !
 ! D123  D(16,20,24,50)        -71.0052                                         !
 ! D124  D(23,20,24,48)         53.163                                          !
 ! D125  D(23,20,24,49)        -64.9722                                         !
 ! D126  D(23,20,24,50)        172.1527                                         !
 ! D127  D(25,20,24,48)        -65.1551                                         !
 ! D128  D(25,20,24,49)        176.7097                                         !
 ! D129  D(25,20,24,50)         53.8346                                         !
 ! D130  D(16,20,25,51)        177.6622                                         !
 ! D131  D(16,20,25,52)         58.1886                                         !
 ! D132  D(16,20,25,53)        -64.6112                                         !
 ! D133  D(23,20,25,51)        -64.0846                                         !
 ! D134  D(23,20,25,52)        176.4418                                         !
 ! D135  D(23,20,25,53)         53.642                                          !
 ! D136  D(24,20,25,51)         53.9691                                         !
 ! D137  D(24,20,25,52)        -65.5045                                         !
 ! D138  D(24,20,25,53)        171.6957                                         !
 ! D139  D(12,21,34,39)         51.1313                                         !
 ! D140  D(12,21,34,40)        -70.9922                                         !
 ! D141  D(12,21,34,41)        169.928                                          !
 ! D142  D(33,21,34,39)        -67.5728                                         !
 ! D143  D(33,21,34,40)        170.3037                                         !
 ! D144  D(33,21,34,41)         51.2239                                         !
 ! D145  D(35,21,34,39)        174.4988                                         !
 ! D146  D(35,21,34,40)         52.3753                                         !
 ! D147  D(35,21,34,41)        -66.7045                                         !
 ! D148  D(16,22,26,60)        173.6084                                         !
 ! D149  D(16,22,26,61)         54.511                                          !
 ! D150  D(16,22,26,62)        -67.7298                                         !
 ! D151  D(27,22,26,60)        -62.7426                                         !
 ! D152  D(27,22,26,61)        178.1601                                         !
 ! D153  D(27,22,26,62)         55.9193                                         !
 ! D154  D(28,22,26,60)         56.9938                                         !
 ! D155  D(28,22,26,61)        -62.1035                                         !
 ! D156  D(28,22,26,62)        175.6557                                         !
 ! D157  D(16,22,27,54)        -66.6747                                         !
 ! D158  D(16,22,27,55)        174.4433                                         !
 ! D159  D(16,22,27,56)         56.0749                                         !
 ! D160  D(26,22,27,54)        174.2546                                         !
 ! D161  D(26,22,27,55)         55.3726                                         !
 ! D162  D(26,22,27,56)        -62.9958                                         !
 ! D163  D(28,22,27,54)         56.3164                                         !
 ! D164  D(28,22,27,55)        -62.5656                                         !
 ! D165  D(28,22,27,56)        179.066                                          !
 ! D166  D(16,22,28,57)         68.6478                                         !
 ! D167  D(16,22,28,58)        -52.7286                                         !
 ! D168  D(16,22,28,59)       -171.8353                                         !
 ! D169  D(26,22,28,57)       -175.8454                                         !
 ! D170  D(26,22,28,58)         62.7783                                         !
 ! D171  D(26,22,28,59)        -56.3284                                         !
 ! D172  D(27,22,28,57)        -57.6019                                         !
 ! D173  D(27,22,28,58)       -178.9782                                         !
 ! D174  D(27,22,28,59)         61.9151                                         !
 --------------------------------------------------------------------------------
 Stoichiometry    C20H37N2O2PRu
 Framework group  C1[X(C20H37N2O2PRu)]
 Deg. of freedom   183
 Full point group                 C1      NOp   1
 Largest Abelian subgroup         C1      NOp   1
 Largest concise Abelian subgroup C1      NOp   1
                         Standard orientation:                         
 ---------------------------------------------------------------------
 Center     Atomic      Atomic             Coordinates (Angstroms)
 Number     Number       Type             X           Y           Z
 ---------------------------------------------------------------------
      1          7           0       -0.800079    1.422012   -0.041372
      2          6           0       -2.015293    1.842050    0.333136
      3          6           0        0.087098    2.253074   -0.611386
      4          6           0       -2.406121    3.163885    0.157470
      5          6           0       -1.492806    4.052891   -0.406592
      6          6           0       -0.236060    3.598147   -0.792747
      7          6           0       -2.836142    0.779311    0.995001
      8          1           0       -3.401920    3.488538    0.460792
      9          1           0       -1.764558    5.100066   -0.552391
     10          1           0        0.489990    4.273662   -1.246163
     11          6           0        1.380154    1.637238   -1.045646
     12          7           0       -2.674604   -0.529710    0.330049
     13          1           0       -3.895929    1.079202    1.061786
     14          1           0       -2.452279    0.656741    2.020862
     15          1           0        1.205324    1.245143   -2.063176
     16         15           0        1.728425    0.076187   -0.076043
     17          1           0        2.200108    2.369213   -1.066183
     18         44           0       -0.404396   -0.634172    0.122158
     19          6           0       -3.316767   -0.528891   -1.006096
     20          6           0        2.988400   -0.834830   -1.170467
     21          6           0       -3.238836   -1.554821    1.237719
     22          6           0        2.567977    0.669480    1.526729
     23          6           0        2.195570   -1.572199   -2.254481
     24          6           0        3.750769   -1.877866   -0.351066
     25          6           0        3.967210    0.123355   -1.854639
     26          6           0        1.663008    1.748440    2.131234
     27          6           0        3.958816    1.268265    1.324228
     28          6           0        2.622711   -0.501332    2.511984
     29          1           0       -0.384379   -0.557937    1.743760
     30          1           0       -2.723029    0.148521   -1.636366
     31          6           0       -4.803819   -0.214665   -1.044230
     32          1           0       -3.128001   -1.520549   -1.435864
     33          1           0       -2.595334   -1.547063    2.129124
     34          6           0       -3.294284   -2.950189    0.654665
     35          1           0       -4.254293   -1.245944    1.556197
     36          6           0        0.029664   -2.393158    0.335538
     37          8           0       -0.622227   -0.364299   -2.012517
     38          1           0       -0.673779   -1.236077   -2.419907
     39          1           0       -2.321065   -3.247014    0.240905
     40          1           0       -4.055020   -3.048759   -0.133460
     41          1           0       -3.552917   -3.661214    1.453012
     42          1           0       -5.157072   -0.323684   -2.080738
     43          1           0       -5.032484    0.817818   -0.738719
     44          1           0       -5.405410   -0.895162   -0.421142
     45          1           0        2.904345   -1.968492   -3.000880
     46          1           0        1.458530   -0.921121   -2.745631
     47          1           0        1.640345   -2.416988   -1.824519
     48          1           0        4.336951   -2.506362   -1.042229
     49          1           0        3.065234   -2.541784    0.196345
     50          1           0        4.455487   -1.431993    0.364281
     51          1           0        4.692695   -0.469255   -2.436925
     52          1           0        4.537085    0.741845   -1.150000
     53          1           0        3.453452    0.788738   -2.563694
     54          1           0        4.696633    0.528244    0.986588
     55          1           0        4.318020    1.670913    2.286397
     56          1           0        3.951270    2.103295    0.606320
     57          1           0        3.310396   -1.294196    2.191361
     58          1           0        1.621977   -0.939404    2.639461
     59          1           0        2.971385   -0.132285    3.491187
     60          1           0        2.063190    2.030449    3.119241
     61          1           0        0.638719    1.372955    2.265587
     62          1           0        1.630820    2.661040    1.516873
     63          8           0        0.361959   -3.498898    0.506357
 ---------------------------------------------------------------------
 Rotational constants (GHZ):           0.2550716           0.1654647           0.1308229
 General basis read from cards:  (5D, 7F)
 ======================================================================================================
                                       Pseudopotential Parameters
 ======================================================================================================
  Center     Atomic      Valence      Angular      Power
  Number     Number     Electrons     Momentum     of R      Exponent        Coefficient   SO-Coeffient
 ======================================================================================================
    1          7
                                   No pseudopotential on this center.
    2          6
                                   No pseudopotential on this center.
    3          6
                                   No pseudopotential on this center.
    4          6
                                   No pseudopotential on this center.
    5          6
                                   No pseudopotential on this center.
    6          6
                                   No pseudopotential on this center.
    7          6
                                   No pseudopotential on this center.
    8          1
                                   No pseudopotential on this center.
    9          1
                                   No pseudopotential on this center.
   10          1
                                   No pseudopotential on this center.
   11          6
                                   No pseudopotential on this center.
   12          7
                                   No pseudopotential on this center.
   13          1
                                   No pseudopotential on this center.
   14          1
                                   No pseudopotential on this center.
   15          1
                                   No pseudopotential on this center.
   16         15
                                   No pseudopotential on this center.
   17          1
                                   No pseudopotential on this center.
   18         44           16
                                      G and up 
                                                     2        1.0000000        0.00000000    0.00000000
                                      S - G
                                                     2       11.1052690      209.82297100    0.00000000
                                                     2        5.4147450       30.65472600    0.00000000
                                      P - G
                                                     2        9.7712710      146.33618200    0.00000000
                                                     2        5.0739910       24.12787700    0.00000000
                                      D - G
                                                     2        7.6714230       67.51589700    0.00000000
                                                     2        4.1365650        9.87010400    0.00000000
                                      F - G
                                                     2       11.3600000      -28.34061600    0.00000000
                                                     2        5.6800000       -4.94462900    0.00000000
   19          6
                                   No pseudopotential on this center.
   20          6
                                   No pseudopotential on this center.
   21          6
                                   No pseudopotential on this center.
   22          6
                                   No pseudopotential on this center.
   23          6
                                   No pseudopotential on this center.
   24          6
                                   No pseudopotential on this center.
   25          6
                                   No pseudopotential on this center.
   26          6
                                   No pseudopotential on this center.
   27          6
                                   No pseudopotential on this center.
   28          6
                                   No pseudopotential on this center.
   29          1
                                   No pseudopotential on this center.
   30          1
                                   No pseudopotential on this center.
   31          6
                                   No pseudopotential on this center.
   32          1
                                   No pseudopotential on this center.
   33          1
                                   No pseudopotential on this center.
   34          6
                                   No pseudopotential on this center.
   35          1
                                   No pseudopotential on this center.
   36          6
                                   No pseudopotential on this center.
   37          8
                                   No pseudopotential on this center.
   38          1
                                   No pseudopotential on this center.
   39          1
                                   No pseudopotential on this center.
   40          1
                                   No pseudopotential on this center.
   41          1
                                   No pseudopotential on this center.
   42          1
                                   No pseudopotential on this center.
   43          1
                                   No pseudopotential on this center.
   44          1
                                   No pseudopotential on this center.
   45          1
                                   No pseudopotential on this center.
   46          1
                                   No pseudopotential on this center.
   47          1
                                   No pseudopotential on this center.
   48          1
                                   No pseudopotential on this center.
   49          1
                                   No pseudopotential on this center.
   50          1
                                   No pseudopotential on this center.
   51          1
                                   No pseudopotential on this center.
   52          1
                                   No pseudopotential on this center.
   53          1
                                   No pseudopotential on this center.
   54          1
                                   No pseudopotential on this center.
   55          1
                                   No pseudopotential on this center.
   56          1
                                   No pseudopotential on this center.
   57          1
                                   No pseudopotential on this center.
   58          1
                                   No pseudopotential on this center.
   59          1
                                   No pseudopotential on this center.
   60          1
                                   No pseudopotential on this center.
   61          1
                                   No pseudopotential on this center.
   62          1
                                   No pseudopotential on this center.
   63          8
                                   No pseudopotential on this center.
 ======================================================================================================
 There are   603 symmetry adapted cartesian basis functions of A   symmetry.
 There are   575 symmetry adapted basis functions of A   symmetry.
   575 basis functions,  1187 primitive gaussians,   603 cartesian basis functions
   109 alpha electrons      109 beta electrons
       nuclear repulsion energy      3252.2010959179 Hartrees.
 NAtoms=   63 NActive=   63 NUniq=   63 SFac= 1.00D+00 NAtFMM=   60 NAOKFM=T Big=T
 Integral buffers will be    131072 words long.
 Regular integral format.
 Two-electron integral symmetry is turned on.
 Nuclear repulsion after empirical dispersion term =     3252.1070473955 Hartrees.
 ------------------------------------------------------------------------------
 Polarizable Continuum Model (PCM)
 =================================
 Model                : PCM.
 Atomic radii         : SMD-Coulomb.
 Polarization charges : Total charges.
 Charge compensation  : None.
 Solution method      : On-the-fly selection.
 Cavity type          : VdW (van der Waals Surface) (Alpha=1.000).
 Cavity algorithm     : GePol (No added spheres)
                        Default sphere list used, NSphG=   63.
                        Lebedev-Laikov grids with approx.  5.0 points / Ang**2.
                        Smoothing algorithm: York/Karplus (Gamma=1.0000).
                        Polarization charges: spherical gaussians, with
                                              point-specific exponents (IZeta= 3).
                        Self-potential: point-specific (ISelfS= 7).
                        Self-field    : sphere-specific E.n sum rule (ISelfD= 2).
 Solvent              : Water, Eps=  78.355300 Eps(inf)=   1.777849
 ------------------------------------------------------------------------------
 ------------------------------------------------------------------------------
 Atomic radii for non-electrostatic terms: SMD-CDS.
 ------------------------------------------------------------------------------
 Nuclear repulsion after PCM non-electrostatic terms =     3252.1248000982 Hartrees.
 One-electron integrals computed using PRISM.
   1 Symmetry operations used in ECPInt.
 ECPInt:  NShTT=   38503 NPrTT=  265225 LenC2=   35800 LenP2D=  136140.
 LDataN:  DoStor=T MaxTD1= 6 Len=  172
 Number of processors reduced to  16 by ecpmxn.
 NBasis=   575 RedAO= T EigKep=  4.40D-04  NBF=   575
 NBsUse=   575 1.00D-06 EigRej= -1.00D+00 NBFU=   575
 Defaulting to unpruned grid for atomic number  44.
 ExpMin= 1.60D-02 ExpMax= 9.48D+04 ExpMxC= 3.24D+03 IAcc=3 IRadAn=         5 AccDes= 0.00D+00
 Harris functional with IExCor= 1009 and IRadAn=       5 diagonalized for initial guess.
 HarFok:  IExCor= 1009 AccDes= 0.00D+00 IRadAn=         5 IDoV= 1 UseB2=F ITyADJ=14
 ICtDFT=  3500011 ScaDFX=  1.000000  1.000000  1.000000  1.000000
 Defaulting to unpruned grid for atomic number  44.
 FoFCou: FMM=F IPFlag=           0 FMFlag=      100000 FMFlg1=        2001
         NFxFlg=           0 DoJE=T BraDBF=F KetDBF=T FulRan=T
         wScrn=  0.000000 ICntrl=       500 IOpCl=  0 I1Cent=   200000004 NGrid=           0
         NMat0=    1 NMatS0=      1 NMatT0=    0 NMatD0=    1 NMtDS0=    0 NMtDT0=    0
 Petite list used in FoFCou.
 Requested convergence on RMS density matrix=1.00D-08 within 128 cycles.
 Requested convergence on MAX density matrix=1.00D-06.
 Requested convergence on             energy=1.00D-06.
 No special actions if energy rises.
 Defaulting to unpruned grid for atomic number  44.
 Defaulting to unpruned grid for atomic number  44.
 Defaulting to unpruned grid for atomic number  44.
 Defaulting to unpruned grid for atomic number  44.
 Defaulting to unpruned grid for atomic number  44.
 Defaulting to unpruned grid for atomic number  44.
 Defaulting to unpruned grid for atomic number  44.
 Defaulting to unpruned grid for atomic number  44.
 Defaulting to unpruned grid for atomic number  44.
 Defaulting to unpruned grid for atomic number  44.
 Defaulting to unpruned grid for atomic number  44.
 Defaulting to unpruned grid for atomic number  44.
 Defaulting to unpruned grid for atomic number  44.
 Defaulting to unpruned grid for atomic number  44.
 Defaulting to unpruned grid for atomic number  44.
 Defaulting to unpruned grid for atomic number  44.
 Defaulting to unpruned grid for atomic number  44.
 Defaulting to unpruned grid for atomic number  44.
 Defaulting to unpruned grid for atomic number  44.
 Defaulting to unpruned grid for atomic number  44.
 Inv3:  Mode=1 IEnd=    47688507.
 Iteration    1 A*A^-1 deviation from unit magnitude is 8.44D-15 for   3973.
 Iteration    1 A*A^-1 deviation from orthogonality  is 8.10D-15 for   3957   1294.
 Iteration    1 A^-1*A deviation from unit magnitude is 8.44D-15 for   3957.
 Iteration    1 A^-1*A deviation from orthogonality  is 2.11D-14 for   3977   2473.
 Error on total polarization charges =  0.07049
 SCF Done:  E(RPBE1PBE) =  -1479.51175872     A.U. after   16 cycles
            NFock= 16  Conv=0.42D-08     -V/T= 2.0489
 SMD-CDS (non-electrostatic) energy       (kcal/mol) =      11.14
 (included in total energy above)
 DoSCS=F DFT=T ScalE2(SS,OS)=  1.000000  1.000000
 ExpMin= 1.60D-02 ExpMax= 9.48D+04 ExpMxC= 3.24D+03 IAcc=3 IRadAn=         5 AccDes= 0.00D+00
 HarFok:  IExCor=  205 AccDes= 0.00D+00 IRadAn=         5 IDoV=-2 UseB2=F ITyADJ=14
 ICtDFT= 12500011 ScaDFX=  1.000000  1.000000  1.000000  1.000000
 Defaulting to unpruned grid for atomic number  44.
 GSVD:  LWork=       -1353 too small for GESVD, short by        5940 words or        5940 for optimal perf.
 Range of M.O.s used for correlation:    34   575
 NBasis=   575 NAE=   109 NBE=   109 NFC=    33 NFV=     0
 NROrb=    542 NOA=    76 NOB=    76 NVA=   466 NVB=   466
 NEqPCM:  Using non-equilibrium solvation (IEInf=1, Eps=  78.3553, EpsInf=   1.7778)
 Inv3:  Mode=1 IEnd=    47688507.
 Iteration    1 A*A^-1 deviation from unit magnitude is 6.88D-15 for   3969.
 Iteration    1 A*A^-1 deviation from orthogonality  is 3.13D-15 for   2724   1087.
 Iteration    1 A^-1*A deviation from unit magnitude is 6.88D-15 for   3969.
 Iteration    1 A^-1*A deviation from orthogonality  is 4.52D-15 for   3986   3050.
 Orbital symmetries:
       Occupied  (A) (A) (A) (A) (A) (A) (A) (A) (A) (A) (A) (A)
                 (A) (A) (A) (A) (A) (A) (A) (A) (A) (A) (A) (A)
                 (A) (A) (A) (A) (A) (A) (A) (A) (A) (A) (A) (A)
                 (A) (A) (A) (A) (A) (A) (A) (A) (A) (A) (A) (A)
                 (A) (A) (A) (A) (A) (A) (A) (A) (A) (A) (A) (A)
                 (A) (A) (A) (A) (A) (A) (A) (A) (A) (A) (A) (A)
                 (A) (A) (A) (A) (A) (A) (A) (A) (A) (A) (A) (A)
                 (A) (A) (A) (A) (A) (A) (A) (A) (A) (A) (A) (A)
                 (A) (A) (A) (A) (A) (A) (A) (A) (A) (A) (A) (A)
                 (A)
       Virtual   (A) (A) (A) (A) (A) (A) (A) (A) (A) (A) (A) (A)
                 (A) (A) (A) (A) (A) (A) (A) (A) (A) (A) (A) (A)
                 (A) (A) (A) (A) (A) (A) (A) (A) (A) (A) (A) (A)
                 (A) (A) (A) (A) (A) (A) (A) (A) (A) (A) (A) (A)
                 (A) (A) (A) (A) (A) (A) (A) (A) (A) (A) (A) (A)
                 (A) (A) (A) (A) (A) (A) (A) (A) (A) (A) (A) (A)
                 (A) (A) (A) (A) (A) (A) (A) (A) (A) (A) (A) (A)
                 (A) (A) (A) (A) (A) (A) (A) (A) (A) (A) (A) (A)
                 (A) (A) (A) (A) (A) (A) (A) (A) (A) (A) (A) (A)
                 (A) (A) (A) (A) (A) (A) (A) (A) (A) (A) (A) (A)
                 (A) (A) (A) (A) (A) (A) (A) (A) (A) (A) (A) (A)
                 (A) (A) (A) (A) (A) (A) (A) (A) (A) (A) (A) (A)
                 (A) (A) (A) (A) (A) (A) (A) (A) (A) (A) (A) (A)
                 (A) (A) (A) (A) (A) (A) (A) (A) (A) (A) (A) (A)
                 (A) (A) (A) (A) (A) (A) (A) (A) (A) (A) (A) (A)
                 (A) (A) (A) (A) (A) (A) (A) (A) (A) (A) (A) (A)
                 (A) (A) (A) (A) (A) (A) (A) (A) (A) (A) (A) (A)
                 (A) (A) (A) (A) (A) (A) (A) (A) (A) (A) (A) (A)
                 (A) (A) (A) (A) (A) (A) (A) (A) (A) (A) (A) (A)
                 (A) (A) (A) (A) (A) (A) (A) (A) (A) (A) (A) (A)
                 (A) (A) (A) (A) (A) (A) (A) (A) (A) (A) (A) (A)
                 (A) (A) (A) (A) (A) (A) (A) (A) (A) (A) (A) (A)
                 (A) (A) (A) (A) (A) (A) (A) (A) (A) (A) (A) (A)
                 (A) (A) (A) (A) (A) (A) (A) (A) (A) (A) (A) (A)
                 (A) (A) (A) (A) (A) (A) (A) (A) (A) (A) (A) (A)
                 (A) (A) (A) (A) (A) (A) (A) (A) (A) (A) (A) (A)
                 (A) (A) (A) (A) (A) (A) (A) (A) (A) (A) (A) (A)
                 (A) (A) (A) (A) (A) (A) (A) (A) (A) (A) (A) (A)
                 (A) (A) (A) (A) (A) (A) (A) (A) (A) (A) (A) (A)
                 (A) (A) (A) (A) (A) (A) (A) (A) (A) (A) (A) (A)
                 (A) (A) (A) (A) (A) (A) (A) (A) (A) (A) (A) (A)
                 (A) (A) (A) (A) (A) (A) (A) (A) (A) (A) (A) (A)
                 (A) (A) (A) (A) (A) (A) (A) (A) (A) (A) (A) (A)
                 (A) (A) (A) (A) (A) (A) (A) (A) (A) (A) (A) (A)
                 (A) (A) (A) (A) (A) (A) (A) (A) (A) (A) (A) (A)
                 (A) (A) (A) (A) (A) (A) (A) (A) (A) (A) (A) (A)
                 (A) (A) (A) (A) (A) (A) (A) (A) (A) (A) (A) (A)
                 (A) (A) (A) (A) (A) (A) (A) (A) (A) (A) (A) (A)
                 (A) (A) (A) (A) (A) (A) (A) (A) (A) (A)
   100 initial guesses have been made.
 Convergence on wavefunction:    0.001000000000000
 Iteration     1 Dimension   100 NMult     0 NNew    100
 CISAX will form    20 AO SS matrices at one time.
 Defaulting to unpruned grid for atomic number  44.
 Defaulting to unpruned grid for atomic number  44.
 Defaulting to unpruned grid for atomic number  44.
 Defaulting to unpruned grid for atomic number  44.
 Defaulting to unpruned grid for atomic number  44.
 Defaulting to unpruned grid for atomic number  44.
 Defaulting to unpruned grid for atomic number  44.
 Defaulting to unpruned grid for atomic number  44.
 Defaulting to unpruned grid for atomic number  44.
 Defaulting to unpruned grid for atomic number  44.
 Defaulting to unpruned grid for atomic number  44.
 Defaulting to unpruned grid for atomic number  44.
 Defaulting to unpruned grid for atomic number  44.
 Defaulting to unpruned grid for atomic number  44.
 Defaulting to unpruned grid for atomic number  44.
 Defaulting to unpruned grid for atomic number  44.
 Defaulting to unpruned grid for atomic number  44.
 Defaulting to unpruned grid for atomic number  44.
 Defaulting to unpruned grid for atomic number  44.
 Defaulting to unpruned grid for atomic number  44.
 New state      2 was old state      6
 New state      3 was old state      2
 New state      4 was old state      5
 New state      5 was old state      3
 New state      6 was old state      4
 New state      7 was old state     15
 New state      8 was old state      7
 New state      9 was old state      8
 New state     10 was old state      9
 New state     11 was old state     22
 New state     12 was old state     11
 New state     13 was old state     19
 New state     14 was old state     20
 New state     15 was old state     10
 New state     16 was old state     18
 New state     17 was old state     12
 New state     18 was old state     14
 New state     19 was old state     24
 New state     20 was old state     17
 New state     21 was old state     13
 New state     22 was old state     21
 New state     23 was old state     40
 New state     24 was old state     16
 New state     25 was old state     23
 Iteration     2 Dimension   150 NMult   100 NNew     50
 New state      4 was old state      5
 New state      5 was old state      4
 New state     13 was old state     14
 New state     14 was old state     13
 New state     21 was old state     22
 New state     22 was old state     23
 New state     23 was old state     21
 Iteration     3 Dimension   200 NMult   150 NNew     50
 Iteration     4 Dimension   250 NMult   200 NNew     50
 Iteration     5 Dimension   274 NMult   250 NNew     24
 Iteration     6 Dimension   278 NMult   274 NNew      4
 ***********************************************************************
 Excited states from <AA,BB:AA,BB> singles matrix:
 ***********************************************************************
 
 Ground to excited state transition densities written to RWF  633
 Ground to excited state transition electric dipole moments (Au):
       state          X           Y           Z        Dip. S.      Osc.
         1        -0.1114     -0.0583      0.0162      0.0161      0.0012
         2        -0.1629     -0.0071      0.2081      0.0699      0.0060
         3         0.0462     -0.1354      0.0304      0.0214      0.0020
         4         0.2050     -0.7669      0.0435      0.6320      0.0625
         5         0.0241     -0.3151     -0.0186      0.1002      0.0100
         6         0.0915     -0.3795      0.0460      0.1545      0.0164
         7         0.0891      0.0232      0.0139      0.0087      0.0009
         8         0.0390      0.0015     -0.0182      0.0019      0.0002
         9        -0.2203      0.1817      0.0023      0.0815      0.0093
        10        -0.0137      0.2896     -0.0336      0.0852      0.0098
        11         0.1814     -0.0174      0.1491      0.0555      0.0065
        12        -0.0097      0.1128      0.0514      0.0154      0.0018
        13        -0.0493     -0.2017     -0.1716      0.0725      0.0087
        14         0.1595     -0.1351      0.0747      0.0493      0.0059
        15        -0.1550      0.2010      0.0484      0.0668      0.0082
        16        -0.0869      0.1130     -0.0201      0.0207      0.0025
        17        -0.1491      0.0883      0.0285      0.0308      0.0039
        18        -0.4357      0.1696      0.1521      0.2417      0.0310
        19        -0.5417     -0.0028      0.1455      0.3146      0.0406
        20        -0.3586     -0.2347      0.1269      0.1998      0.0259
        21        -0.2760      0.1070      0.0900      0.0957      0.0126
        22         0.2623     -0.0708      0.0132      0.0740      0.0099
        23         0.0218      0.0324      0.1404      0.0212      0.0028
        24         0.0228      0.0281     -0.0679      0.0059      0.0008
        25        -0.0241      0.0135     -0.0443      0.0027      0.0004
 Ground to excited state transition velocity dipole moments (Au):
       state          X           Y           Z        Dip. S.      Osc.
         1         0.0124      0.0064      0.0032      0.0002      0.0012
         2         0.0124     -0.0006     -0.0211      0.0006      0.0031
         3        -0.0065      0.0146     -0.0044      0.0003      0.0013
         4        -0.0225      0.0999     -0.0094      0.0106      0.0475
         5        -0.0111      0.0398      0.0073      0.0018      0.0079
         6        -0.0142      0.0535     -0.0073      0.0031      0.0130
         7        -0.0154     -0.0059      0.0023      0.0003      0.0011
         8        -0.0116     -0.0011      0.0038      0.0001      0.0006
         9         0.0358     -0.0279      0.0065      0.0021      0.0082
        10         0.0098     -0.0406     -0.0004      0.0017      0.0067
        11        -0.0346      0.0000     -0.0303      0.0021      0.0080
        12         0.0034     -0.0155     -0.0167      0.0005      0.0020
        13         0.0087      0.0263      0.0203      0.0012      0.0044
        14        -0.0375      0.0219     -0.0132      0.0021      0.0076
        15         0.0343     -0.0313     -0.0071      0.0022      0.0080
        16         0.0131     -0.0248     -0.0043      0.0008      0.0029
        17         0.0342     -0.0205     -0.0017      0.0016      0.0055
        18         0.0843     -0.0307     -0.0296      0.0089      0.0309
        19         0.1042      0.0011     -0.0274      0.0116      0.0400
        20         0.0681      0.0467     -0.0227      0.0073      0.0252
        21         0.0530     -0.0209     -0.0213      0.0037      0.0124
        22        -0.0570      0.0118     -0.0063      0.0034      0.0114
        23        -0.0011     -0.0141     -0.0351      0.0014      0.0047
        24        -0.0091      0.0005      0.0092      0.0002      0.0005
        25         0.0066     -0.0042      0.0145      0.0003      0.0009
 Ground to excited state transition magnetic dipole moments (Au):
       state          X           Y           Z
         1        -0.0537      0.4038     -0.2575
         2         0.0469      0.9766      0.0475
         3         0.0891     -0.0869      0.0547
         4        -0.2762     -0.4406     -0.3817
         5        -0.2882      0.3542      0.1673
         6        -0.0006      0.2830      0.1062
         7        -0.0625      0.1771     -0.0266
         8         0.0696      0.0243      0.2641
         9        -0.2294      0.0078     -0.3177
        10        -0.2293      0.0610     -0.4618
        11         0.2395      0.0639      0.6485
        12         0.6353     -0.1501     -0.1781
        13        -0.7913     -0.1910      0.3847
        14        -0.0375      0.1150     -0.2246
        15         0.1713     -0.0991     -0.0773
        16        -0.3057     -0.0489     -0.2204
        17         0.0065      0.0759     -0.1555
        18        -0.2897     -0.2442     -0.9157
        19        -0.2478     -0.2430     -0.7431
        20        -0.3443     -0.3168     -1.4272
        21        -0.2950      0.0337     -0.7126
        22        -0.1048      0.1321     -0.0007
        23        -0.0020     -0.0785     -0.0428
        24         0.0210     -0.2045      0.1869
        25         0.2700     -0.0851      0.3101
 Ground to excited state transition velocity quadrupole moments (Au):
       state          XX          YY          ZZ          XY          XZ          YZ
         1        -0.0107      0.0373     -0.0081     -0.0058      0.0406     -0.0168
         2        -0.0536     -0.0105      0.0112     -0.0597     -0.0315      0.0316
         3        -0.0168      0.1077     -0.0273     -0.0716     -0.0235     -0.0017
         4        -0.0333      0.3879     -0.0460     -0.2115     -0.0449     -0.0317
         5         0.0853      0.1187     -0.0264     -0.0643      0.1239      0.0038
         6         0.0498      0.1127     -0.0040     -0.1447     -0.0310      0.0021
         7         0.0173      0.0308     -0.0124      0.0067      0.0030     -0.0209
         8         0.0402      0.0400     -0.0162     -0.0437      0.0037      0.0241
         9         0.0489     -0.0794     -0.0242     -0.0398     -0.1399      0.0412
        10        -0.0395     -0.1468      0.0745      0.0999      0.0667      0.0421
        11        -0.0130     -0.2608      0.2044     -0.0372      0.0346      0.0545
        12        -0.0776      0.0295     -0.0059      0.0157      0.0514     -0.0039
        13         0.0145     -0.0285     -0.0118      0.0051     -0.0416      0.0859
        14         0.0390      0.1092     -0.0616      0.0311      0.0568     -0.0588
        15         0.0122     -0.0194     -0.0225     -0.0299     -0.0591      0.0071
        16        -0.0038     -0.1997      0.0845      0.1205      0.0343      0.0327
        17        -0.0345     -0.0371      0.0959     -0.0367     -0.1725     -0.0151
        18        -0.2051     -0.1410      0.1229      0.3513      0.0895     -0.0948
        19        -0.2050      0.0100      0.1132      0.0737     -0.0499     -0.0815
        20        -0.3590      0.2899      0.0433      0.1779      0.0927     -0.2037
        21        -0.1020     -0.1303      0.0560      0.2243      0.0583     -0.0374
        22         0.1119      0.0521     -0.0870      0.0353      0.1045      0.0511
        23         0.1403      0.0052      0.0580     -0.1044      0.0082      0.0546
        24        -0.0457      0.0310      0.0249     -0.0467      0.0095      0.0132
        25        -0.0183     -0.0384      0.0186     -0.0585      0.0224      0.0792
 <0|del|b> * <b|rxdel|0> + <0|del|b> * <b|delr+rdel|0>
 Rotatory Strengths (R) in cgs (10**-40 erg-esu-cm/Gauss)
       state          XX          YY          ZZ    R(velocity)    E-M Angle
         1         4.6657     -5.2558      7.4672      2.2924       80.89
         2        -0.8770     -3.5610     -0.9691     -1.8024       92.34
         3        -2.1761     -2.8705     -5.6310     -3.5592      157.84
         4       -80.9132     20.3067   -102.4771    -54.3612      121.05
         5        23.4960     11.4732     52.7801     29.2498       24.86
         6        37.8369     -4.0834     29.9609     21.2381       31.55
         7        -2.3330      2.6214     -0.9224     -0.2113       92.65
         8         1.6842      0.1544     -1.1594      0.2264       87.21
         9       -13.2549    -17.5804    -12.3595    -14.3983      125.73
        10         0.7531     -3.2979    -15.9936     -6.1795      102.10
        11       -37.1943    -62.1855    -12.8682    -37.4160      150.98
        12        11.5194     10.6088      7.3002      9.8095       61.43
        13         7.8510      3.1340    -27.0360     -5.3504       97.57
        14         7.5185     13.7258      5.8198      9.0214       53.47
        15         3.8727     12.4188     20.3584     12.2166       17.36
        16         4.7803     -4.0511     -7.8228     -2.3645       99.87
        17        -8.7593     -0.1583      5.0048     -1.3043       98.83
        18        49.4735      9.3504    -21.4668     12.4523       83.76
        19        33.1592    -21.7434    -32.2055     -6.9299       93.69
        20        16.7365     -1.7762    -36.4813     -7.1737       92.63
        21        19.4355      4.1026    -27.7893     -1.4171       91.45
        22         0.1930      5.7973     20.6186      8.8697       40.22
        23        11.2287     -3.8972      1.8505      3.0607       39.46
        24         2.0436      3.1884     -0.2981      1.6446       66.68
        25         7.0835     13.2451      2.6386      7.6557       16.31
 1/2[<0|r|b>*<b|rxdel|0> + (<0|rxdel|b>*<b|r|0>)*]
 Rotatory Strengths (R) in cgs (10**-40 erg-esu-cm/Gauss)
       state          XX          YY          ZZ     R(length)
         1        -4.2281     16.6365      2.9557      5.1214
         2         5.4021      4.9084     -6.9828      1.1092
         3        -2.9124     -8.3207     -1.1740     -4.1357
         4        40.0501   -238.9210     11.7536    -62.3724
         5         4.9026     78.9334      2.2009     28.6790
         6         0.0413     75.9494     -3.4561     24.1782
         7         3.9355     -2.9038      0.2621      0.4313
         8        -1.9193     -0.0253      3.3933      0.4829
         9       -35.7343     -0.9991      0.5178    -12.0719
        10        -2.2175    -12.4981    -10.9585     -8.5580
        11       -30.7177      0.7862    -68.4020    -32.7778
        12         4.3395     11.9683      6.4676      7.5918
        13       -27.5997    -27.2486     46.6733     -2.7250
        14         4.2336     10.9848     11.8601      9.0261
        15        18.7737     14.0819      2.6429     11.8328
        16       -18.7747      3.9034     -3.1287     -6.0000
        17         0.6874     -4.7425      3.1327     -0.3074
        18       -89.2678     29.2794     98.4678     12.8265
        19       -94.9100     -0.4835     76.4832     -6.3034
        20       -87.3152    -52.5959    128.0362     -3.9583
        21       -57.5717     -2.5520     45.3485     -4.9251
        22        19.4392      6.6206      0.0068      8.6889
        23         0.0300      1.8006      4.2479      2.0262
        24        -0.3394      4.0597      8.9725      4.2309
        25         4.5961      0.8117      9.7102      5.0394
  1/2[<0|del|b>*<b|r|0> + (<0|r|b>*<b|del|0>)*] (Au)
       state          X           Y           Z        Dip. S.   Osc.(frdel)
         1        -0.0014     -0.0004      0.0001      0.0017      0.0011
         2        -0.0020      0.0000     -0.0044      0.0064      0.0043
         3        -0.0003     -0.0020     -0.0001      0.0024      0.0016
         4        -0.0046     -0.0766     -0.0004      0.0817      0.0544
         5        -0.0003     -0.0125     -0.0001      0.0129      0.0086
         6        -0.0013     -0.0203     -0.0003      0.0219      0.0146
         7        -0.0014     -0.0001      0.0000      0.0015      0.0010
         8        -0.0005     -0.0000     -0.0001      0.0005      0.0003
         9        -0.0079     -0.0051      0.0000      0.0129      0.0086
        10        -0.0001     -0.0118      0.0000      0.0119      0.0079
        11        -0.0063     -0.0000     -0.0045      0.0108      0.0072
        12        -0.0000     -0.0017     -0.0009      0.0026      0.0018
        13        -0.0004     -0.0053     -0.0035      0.0092      0.0061
        14        -0.0060     -0.0030     -0.0010      0.0099      0.0066
        15        -0.0053     -0.0063     -0.0003      0.0119      0.0080
        16        -0.0011     -0.0028      0.0001      0.0039      0.0026
        17        -0.0051     -0.0018     -0.0000      0.0070      0.0046
        18        -0.0367     -0.0052     -0.0045      0.0464      0.0310
        19        -0.0564     -0.0000     -0.0040      0.0604      0.0403
        20        -0.0244     -0.0110     -0.0029      0.0383      0.0255
        21        -0.0146     -0.0022     -0.0019      0.0188      0.0125
        22        -0.0149     -0.0008     -0.0001      0.0159      0.0106
        23        -0.0000     -0.0005     -0.0049      0.0054      0.0036
        24        -0.0002      0.0000     -0.0006      0.0008      0.0005
        25        -0.0002     -0.0001     -0.0006      0.0009      0.0006

 Excitation energies and oscillator strengths:
 
 Excited State   1:      Singlet-A      3.0618 eV  404.94 nm  f=0.0012  <S**2>=0.000
     109 ->110         0.69157
     109 ->113         0.11250
 This state for optimization and/or second-order correction.
 Total Energy, E(TD-HF/TD-DFT) =  -1479.39924070    
 Copying the excited state density for this state as the 1-particle RhoCI density.
 
 Excited State   2:      Singlet-A      3.4764 eV  356.64 nm  f=0.0060  <S**2>=0.000
     109 ->110        -0.11932
     109 ->112         0.41515
     109 ->113         0.43814
     109 ->114        -0.22012
     109 ->115         0.12913
     109 ->118        -0.11948
 
 Excited State   3:      Singlet-A      3.7578 eV  329.94 nm  f=0.0020  <S**2>=0.000
     109 ->111         0.69619
 
 Excited State   4:      Singlet-A      4.0386 eV  307.00 nm  f=0.0625  <S**2>=0.000
     108 ->110         0.63546
     109 ->112         0.12392
     109 ->113        -0.17093
     109 ->114        -0.10767
 
 Excited State   5:      Singlet-A      4.0561 eV  305.67 nm  f=0.0100  <S**2>=0.000
     108 ->110         0.24237
     109 ->112        -0.33970
     109 ->113         0.40001
     109 ->114         0.28725
     109 ->117        -0.17840
 
 Excited State   6:      Singlet-A      4.3399 eV  285.69 nm  f=0.0164  <S**2>=0.000
     107 ->110         0.68445
     108 ->110         0.10821
 
 Excited State   7:      Singlet-A      4.4305 eV  279.84 nm  f=0.0009  <S**2>=0.000
     108 ->111         0.12660
     108 ->112         0.44782
     108 ->113         0.32049
     108 ->114        -0.29982
     108 ->115         0.13872
     109 ->118        -0.16236
 
 Excited State   8:      Singlet-A      4.6212 eV  268.30 nm  f=0.0002  <S**2>=0.000
     103 ->110         0.10846
     104 ->110         0.11661
     108 ->111         0.66835
 
 Excited State   9:      Singlet-A      4.6764 eV  265.13 nm  f=0.0093  <S**2>=0.000
     107 ->112         0.15609
     107 ->113         0.13417
     107 ->114        -0.10490
     108 ->113         0.10716
     109 ->112         0.30602
     109 ->114         0.47840
     109 ->117         0.16080
     109 ->118        -0.11069
     109 ->119        -0.14002
 
 Excited State  10:      Singlet-A      4.7187 eV  262.75 nm  f=0.0098  <S**2>=0.000
     106 ->110         0.17997
     107 ->112         0.38078
     107 ->113         0.20851
     107 ->114        -0.25758
     108 ->113         0.17497
     108 ->117        -0.10079
     109 ->112        -0.19371
     109 ->114        -0.23100
 
 Excited State  11:      Singlet-A      4.7877 eV  258.97 nm  f=0.0065  <S**2>=0.000
     106 ->110         0.66074
     107 ->112        -0.12236
 
 Excited State  12:      Singlet-A      4.8709 eV  254.54 nm  f=0.0018  <S**2>=0.000
     108 ->112         0.19963
     108 ->114        -0.19896
     109 ->115         0.23448
     109 ->117        -0.30479
     109 ->118         0.39841
     109 ->119        -0.12498
 
 Excited State  13:      Singlet-A      4.8830 eV  253.91 nm  f=0.0087  <S**2>=0.000
     105 ->110         0.19434
     107 ->113        -0.10491
     108 ->112        -0.10638
     108 ->113         0.42558
     108 ->114         0.21381
     108 ->119        -0.14467
     108 ->120         0.10339
     109 ->117        -0.31710
 
 Excited State  14:      Singlet-A      4.9070 eV  252.67 nm  f=0.0059  <S**2>=0.000
     105 ->110         0.65336
     108 ->113        -0.10385
     109 ->117         0.18170
 
 Excited State  15:      Singlet-A      4.9951 eV  248.21 nm  f=0.0082  <S**2>=0.000
     107 ->111         0.39197
     107 ->112         0.11342
[...]

 **********************************************************************

            Population analysis using the SCF density.

 **********************************************************************

 Orbital symmetries:
       Occupied  (A) (A) (A) (A) (A) (A) (A) (A) (A) (A) (A) (A)
                 (A) (A) (A) (A) (A) (A) (A) (A) (A) (A) (A) (A)
                 (A) (A) (A) (A) (A) (A) (A) (A) (A) (A) (A) (A)
                 (A) (A) (A) (A) (A) (A) (A) (A) (A) (A) (A) (A)
                 (A) (A) (A) (A) (A) (A) (A) (A) (A) (A) (A) (A)
                 (A) (A) (A) (A) (A) (A) (A) (A) (A) (A) (A) (A)
                 (A) (A) (A) (A) (A) (A) (A) (A) (A) (A) (A) (A)
                 (A) (A) (A) (A) (A) (A) (A) (A) (A) (A) (A) (A)
                 (A) (A) (A) (A) (A) (A) (A) (A) (A) (A) (A) (A)
                 (A)
       Virtual   (A) (A) (A) (A) (A) (A) (A) (A) (A) (A) (A) (A)
                 (A) (A) (A) (A) (A) (A) (A) (A) (A) (A) (A) (A)
                 (A) (A) (A) (A) (A) (A) (A) (A) (A) (A) (A) (A)
                 (A) (A) (A) (A) (A) (A) (A) (A) (A) (A) (A) (A)
                 (A) (A) (A) (A) (A) (A) (A) (A) (A) (A) (A) (A)
                 (A) (A) (A) (A) (A) (A) (A) (A) (A) (A) (A) (A)
                 (A) (A) (A) (A) (A) (A) (A) (A) (A) (A) (A) (A)
                 (A) (A) (A) (A) (A) (A) (A) (A) (A) (A) (A) (A)
                 (A) (A) (A) (A) (A) (A) (A) (A) (A) (A) (A) (A)
                 (A) (A) (A) (A) (A) (A) (A) (A) (A) (A) (A) (A)
                 (A) (A) (A) (A) (A) (A) (A) (A) (A) (A) (A) (A)
                 (A) (A) (A) (A) (A) (A) (A) (A) (A) (A) (A) (A)
                 (A) (A) (A) (A) (A) (A) (A) (A) (A) (A) (A) (A)
                 (A) (A) (A) (A) (A) (A) (A) (A) (A) (A) (A) (A)
                 (A) (A) (A) (A) (A) (A) (A) (A) (A) (A) (A) (A)
                 (A) (A) (A) (A) (A) (A) (A) (A) (A) (A) (A) (A)
                 (A) (A) (A) (A) (A) (A) (A) (A) (A) (A) (A) (A)
                 (A) (A) (A) (A) (A) (A) (A) (A) (A) (A) (A) (A)
                 (A) (A) (A) (A) (A) (A) (A) (A) (A) (A) (A) (A)
                 (A) (A) (A) (A) (A) (A) (A) (A) (A) (A) (A) (A)
                 (A) (A) (A) (A) (A) (A) (A) (A) (A) (A) (A) (A)
                 (A) (A) (A) (A) (A) (A) (A) (A) (A) (A) (A) (A)
                 (A) (A) (A) (A) (A) (A) (A) (A) (A) (A) (A) (A)
                 (A) (A) (A) (A) (A) (A) (A) (A) (A) (A) (A) (A)
                 (A) (A) (A) (A) (A) (A) (A) (A) (A) (A) (A) (A)
                 (A) (A) (A) (A) (A) (A) (A) (A) (A) (A) (A) (A)
                 (A) (A) (A) (A) (A) (A) (A) (A) (A) (A) (A) (A)
                 (A) (A) (A) (A) (A) (A) (A) (A) (A) (A) (A) (A)
                 (A) (A) (A) (A) (A) (A) (A) (A) (A) (A) (A) (A)
                 (A) (A) (A) (A) (A) (A) (A) (A) (A) (A) (A) (A)
                 (A) (A) (A) (A) (A) (A) (A) (A) (A) (A) (A) (A)
                 (A) (A) (A) (A) (A) (A) (A) (A) (A) (A) (A) (A)
                 (A) (A) (A) (A) (A) (A) (A) (A) (A) (A) (A) (A)
                 (A) (A) (A) (A) (A) (A) (A) (A) (A) (A) (A) (A)
                 (A) (A) (A) (A) (A) (A) (A) (A) (A) (A) (A) (A)
                 (A) (A) (A) (A) (A) (A) (A) (A) (A) (A) (A) (A)
                 (A) (A) (A) (A) (A) (A) (A) (A) (A) (A) (A) (A)
                 (A) (A) (A) (A) (A) (A) (A) (A) (A) (A) (A) (A)
                 (A) (A) (A) (A) (A) (A) (A) (A) (A) (A)
 The electronic state is 1-A.
 Alpha  occ. eigenvalues --  -77.25035 -19.25206 -19.13463 -14.43306 -14.43157
 Alpha  occ. eigenvalues --  -10.31165 -10.29350 -10.28887 -10.26456 -10.25823
 Alpha  occ. eigenvalues --  -10.25353 -10.25215 -10.25065 -10.24766 -10.24681
 Alpha  occ. eigenvalues --  -10.24428 -10.23980 -10.21763 -10.21762 -10.21728
 Alpha  occ. eigenvalues --  -10.21664 -10.21647 -10.21493 -10.21360 -10.20980
 Alpha  occ. eigenvalues --   -6.62983  -4.76630  -4.76538  -4.76307  -3.02413
 Alpha  occ. eigenvalues --   -1.86940  -1.85218  -1.84270  -1.11881  -1.00733
 Alpha  occ. eigenvalues --   -0.96567  -0.90871  -0.84975  -0.83728  -0.83226
 Alpha  occ. eigenvalues --   -0.82467  -0.77713  -0.76797  -0.74025  -0.70421
 Alpha  occ. eigenvalues --   -0.70350  -0.69907  -0.69423  -0.69087  -0.66024
 Alpha  occ. eigenvalues --   -0.65713  -0.63135  -0.61797  -0.57450  -0.56255
 Alpha  occ. eigenvalues --   -0.55810  -0.53157  -0.52718  -0.51802  -0.50807
 Alpha  occ. eigenvalues --   -0.49897  -0.48121  -0.47327  -0.46415  -0.45671
 Alpha  occ. eigenvalues --   -0.45581  -0.45416  -0.45059  -0.44425  -0.44094
 Alpha  occ. eigenvalues --   -0.43681  -0.43184  -0.43084  -0.42699  -0.42068
 Alpha  occ. eigenvalues --   -0.41477  -0.41209  -0.40857  -0.39884  -0.39544
 Alpha  occ. eigenvalues --   -0.39052  -0.38716  -0.38471  -0.38138  -0.37968
 Alpha  occ. eigenvalues --   -0.37783  -0.36617  -0.36448  -0.36200  -0.35829
 Alpha  occ. eigenvalues --   -0.35042  -0.34857  -0.34436  -0.33685  -0.33396
 Alpha  occ. eigenvalues --   -0.32969  -0.32519  -0.32321  -0.31896  -0.31252
 Alpha  occ. eigenvalues --   -0.30849  -0.29494  -0.26855  -0.26610  -0.25534
 Alpha  occ. eigenvalues --   -0.24797  -0.23390  -0.22191  -0.18987
 Alpha virt. eigenvalues --   -0.03736  -0.01632   0.00690   0.01171   0.01971
 Alpha virt. eigenvalues --    0.03601   0.03798   0.04406   0.04867   0.06289
 Alpha virt. eigenvalues --    0.07652   0.08967   0.09526   0.09677   0.09766
 Alpha virt. eigenvalues --    0.10330   0.11000   0.11074   0.11852   0.12109
 Alpha virt. eigenvalues --    0.12823   0.12842   0.13356   0.13578   0.13833
 Alpha virt. eigenvalues --    0.14139   0.14395   0.14688   0.14996   0.15674
 Alpha virt. eigenvalues --    0.15923   0.16273   0.16493   0.17177   0.17497
 Alpha virt. eigenvalues --    0.17715   0.17798   0.18136   0.18743   0.18933
 Alpha virt. eigenvalues --    0.19151   0.19531   0.19716   0.20056   0.20647
 Alpha virt. eigenvalues --    0.20943   0.21121   0.21423   0.22044   0.22284
 Alpha virt. eigenvalues --    0.22454   0.22601   0.23385   0.23757   0.23824
 Alpha virt. eigenvalues --    0.24525   0.24664   0.25042   0.25975   0.26375
 Alpha virt. eigenvalues --    0.27070   0.27755   0.28112   0.28904   0.29774
 Alpha virt. eigenvalues --    0.30295   0.31079   0.31583   0.31874   0.32805
 Alpha virt. eigenvalues --    0.33235   0.33646   0.34239   0.34972   0.36339
 Alpha virt. eigenvalues --    0.37117   0.38037   0.40398   0.41848   0.42547
 Alpha virt. eigenvalues --    0.42907   0.44047   0.44594   0.44656   0.45180
 Alpha virt. eigenvalues --    0.45737   0.46431   0.47010   0.47937   0.48083
 Alpha virt. eigenvalues --    0.48604   0.49697   0.49785   0.51068   0.51390
 Alpha virt. eigenvalues --    0.52018   0.52664   0.53046   0.53772   0.54373
 Alpha virt. eigenvalues --    0.55013   0.55361   0.55978   0.56137   0.57427
 Alpha virt. eigenvalues --    0.57723   0.58106   0.59103   0.59400   0.60229
 Alpha virt. eigenvalues --    0.60417   0.60904   0.61392   0.61907   0.62211
 Alpha virt. eigenvalues --    0.62704   0.62988   0.63544   0.64035   0.64311
 Alpha virt. eigenvalues --    0.64614   0.64910   0.65028   0.65503   0.65915
 Alpha virt. eigenvalues --    0.66168   0.66345   0.66629   0.67010   0.67548
 Alpha virt. eigenvalues --    0.67859   0.68036   0.68374   0.68618   0.68773
 Alpha virt. eigenvalues --    0.68921   0.69533   0.70023   0.70032   0.70559
 Alpha virt. eigenvalues --    0.70941   0.71344   0.71985   0.72640   0.72872
 Alpha virt. eigenvalues --    0.73309   0.73744   0.73935   0.74564   0.74769
 Alpha virt. eigenvalues --    0.75225   0.75388   0.75655   0.75885   0.76524
 Alpha virt. eigenvalues --    0.76558   0.77524   0.78164   0.78744   0.78982
 Alpha virt. eigenvalues --    0.79346   0.79971   0.80475   0.80745   0.81455
 Alpha virt. eigenvalues --    0.82131   0.82816   0.83061   0.83752   0.84437
 Alpha virt. eigenvalues --    0.85226   0.85683   0.86368   0.87095   0.87212
 Alpha virt. eigenvalues --    0.88275   0.88584   0.89360   0.90071   0.90945
 Alpha virt. eigenvalues --    0.91753   0.92061   0.92624   0.92885   0.94163
 Alpha virt. eigenvalues --    0.94424   0.95190   0.95882   0.96411   0.96918
 Alpha virt. eigenvalues --    0.98025   0.98412   0.98816   0.99924   1.00667
 Alpha virt. eigenvalues --    1.01550   1.02552   1.02738   1.03961   1.04396
 Alpha virt. eigenvalues --    1.04627   1.05327   1.06494   1.07021   1.08257
 Alpha virt. eigenvalues --    1.09220   1.10602   1.11806   1.12266   1.13372
 Alpha virt. eigenvalues --    1.13427   1.14766   1.15942   1.17562   1.17863
 Alpha virt. eigenvalues --    1.17994   1.18558   1.20031   1.22220   1.23176
 Alpha virt. eigenvalues --    1.23839   1.25261   1.25590   1.26891   1.27331
 Alpha virt. eigenvalues --    1.29094   1.29300   1.29850   1.30293   1.30717
 Alpha virt. eigenvalues --    1.31791   1.32770   1.33899   1.34560   1.35999
 Alpha virt. eigenvalues --    1.37148   1.37367   1.37559   1.38893   1.39158
 Alpha virt. eigenvalues --    1.39367   1.40490   1.41011   1.42276   1.42374
 Alpha virt. eigenvalues --    1.43291   1.43874   1.44007   1.44532   1.44877
 Alpha virt. eigenvalues --    1.45469   1.45754   1.46435   1.46938   1.47913
 Alpha virt. eigenvalues --    1.48030   1.48969   1.49346   1.49688   1.50156
 Alpha virt. eigenvalues --    1.51017   1.51874   1.52731   1.53302   1.54106
 Alpha virt. eigenvalues --    1.54671   1.55071   1.55178   1.56264   1.57157
 Alpha virt. eigenvalues --    1.57492   1.58308   1.58872   1.59567   1.60534
 Alpha virt. eigenvalues --    1.61927   1.62202   1.62462   1.63244   1.63440
 Alpha virt. eigenvalues --    1.63492   1.64570   1.65027   1.65701   1.66491
 Alpha virt. eigenvalues --    1.67053   1.67309   1.67959   1.68629   1.68678
 Alpha virt. eigenvalues --    1.68873   1.69490   1.69866   1.70123   1.70483
 Alpha virt. eigenvalues --    1.71031   1.71316   1.71744   1.72116   1.72800
 Alpha virt. eigenvalues --    1.73047   1.73096   1.73569   1.74537   1.74788
 Alpha virt. eigenvalues --    1.75067   1.75522   1.75714   1.76403   1.76879
 Alpha virt. eigenvalues --    1.77292   1.77593   1.77900   1.78912   1.79242
 Alpha virt. eigenvalues --    1.79475   1.80445   1.80777   1.81477   1.81994
 Alpha virt. eigenvalues --    1.82249   1.82588   1.83555   1.84011   1.85448
 Alpha virt. eigenvalues --    1.85779   1.85892   1.86387   1.86851   1.87308
 Alpha virt. eigenvalues --    1.88337   1.89120   1.89619   1.89879   1.91067
 Alpha virt. eigenvalues --    1.91229   1.91838   1.92366   1.93497   1.93709
 Alpha virt. eigenvalues --    1.94236   1.94943   1.95820   1.97402   1.97587
 Alpha virt. eigenvalues --    1.98466   1.98897   1.99790   1.99946   2.00828
 Alpha virt. eigenvalues --    2.01060   2.01402   2.01800   2.03484   2.03558
 Alpha virt. eigenvalues --    2.04307   2.05602   2.06344   2.06531   2.07116
 Alpha virt. eigenvalues --    2.07847   2.08342   2.08834   2.09879   2.10287
 Alpha virt. eigenvalues --    2.10846   2.11282   2.12278   2.12557   2.13244
 Alpha virt. eigenvalues --    2.13797   2.14796   2.16329   2.17495   2.18426
 Alpha virt. eigenvalues --    2.19226   2.19920   2.21712   2.22539   2.22852
 Alpha virt. eigenvalues --    2.23781   2.25369   2.25797   2.26404   2.26596
 Alpha virt. eigenvalues --    2.27083   2.27347   2.28089   2.28549   2.29558
 Alpha virt. eigenvalues --    2.30056   2.32130   2.32593   2.34360   2.35883
 Alpha virt. eigenvalues --    2.39502   2.40127   2.42109   2.42338   2.42837
 Alpha virt. eigenvalues --    2.43182   2.43342   2.43562   2.44385   2.45128
 Alpha virt. eigenvalues --    2.45553   2.45964   2.46466   2.47679   2.48035
 Alpha virt. eigenvalues --    2.48628   2.49605   2.50109   2.50511   2.51114
 Alpha virt. eigenvalues --    2.51208   2.52077   2.52806   2.53055   2.54498
 Alpha virt. eigenvalues --    2.54614   2.55395   2.56325   2.56937   2.57521
 Alpha virt. eigenvalues --    2.58051   2.58367   2.59179   2.59625   2.60271
 Alpha virt. eigenvalues --    2.61649   2.62238   2.62707   2.63217   2.64526
 Alpha virt. eigenvalues --    2.65406   2.66049   2.68091   2.70151   2.70405
 Alpha virt. eigenvalues --    2.70876   2.72043   2.74418   2.75163   2.77781
 Alpha virt. eigenvalues --    2.79179   2.79688   2.80595   2.82847   2.83903
 Alpha virt. eigenvalues --    2.85626   2.86353   2.95688   2.98905   3.03343
 Alpha virt. eigenvalues --    3.05373   3.12006   3.13044   3.14575   3.51865
 Alpha virt. eigenvalues --    3.58823   3.84504  34.72767  35.05847  35.11872
 Alpha virt. eigenvalues --   46.05288
          Condensed to atoms (all electrons):
 Mulliken charges:
               1
     1  N   -0.313224
     2  C    0.042090
     3  C    0.064165
     4  C   -0.047735
     5  C    0.079645
     6  C   -0.047428
     7  C    0.123496
     8  H    0.033200
     9  H    0.047208
    10  H    0.033351
    11  C   -0.076840
    12  N   -0.388511
    13  H    0.068437
    14  H    0.121815
    15  H    0.132365
    16  P    0.239778
    17  H    0.088862
    18  Ru  -0.280505
    19  C   -0.024340
    20  C   -0.471415
    21  C    0.008643
    22  C   -0.447601
    23  C    0.004409
    24  C   -0.017861
    25  C   -0.003081
    26  C   -0.026997
    27  C   -0.000275
    28  C   -0.024823
    29  H   -0.064574
    30  H    0.113485
    31  C   -0.079100
    32  H    0.093201
    33  H    0.090011
    34  C   -0.109113
    35  H    0.051978
    36  C    0.022433
    37  O   -0.500014
    38  H    0.162703
    39  H    0.090104
    40  H    0.066481
    41  H    0.065028
    42  H    0.060063
    43  H    0.063707
    44  H    0.058114
    45  H    0.039636
    46  H    0.059740
    47  H    0.082763
    48  H    0.049767
    49  H    0.070843
    50  H    0.063325
    51  H    0.047266
    52  H    0.044651
    53  H    0.057027
    54  H    0.061775
    55  H    0.046535
    56  H    0.060019
    57  H    0.047365
    58  H    0.107013
    59  H    0.046193
    60  H    0.047461
    61  H    0.107015
    62  H    0.061983
    63  O   -0.201711
 Sum of Mulliken charges =  -0.00000
 Mulliken charges with hydrogens summed into heavy atoms:
               1
     1  N   -0.313224
     2  C    0.042090
     3  C    0.064165
     4  C   -0.014536
     5  C    0.126853
     6  C   -0.014077
     7  C    0.313747
    11  C    0.144386
    12  N   -0.388511
    16  P    0.239778
    18  Ru  -0.345079
    19  C    0.182345
    20  C   -0.471415
    21  C    0.150632
    22  C   -0.447601
    23  C    0.186549
    24  C    0.166074
    25  C    0.145863
    26  C    0.189463
    27  C    0.168054
    28  C    0.175749
    31  C    0.102784
    34  C    0.112500
    36  C    0.022433
    37  O   -0.337311
    63  O   -0.201711
 Electronic spatial extent (au):  <R**2>=           9457.6605
 Charge=             -0.0000 electrons
 Dipole moment (field-independent basis, Debye):
    X=             -1.1189    Y=              8.3246    Z=              1.3433  Tot=              8.5062
 Quadrupole moment (field-independent basis, Debye-Ang):
   XX=           -145.9334   YY=           -172.9730   ZZ=           -190.3615
   XY=              0.5971   XZ=             -7.6485   YZ=              2.4049
 Traceless Quadrupole moment (field-independent basis, Debye-Ang):
   XX=             23.8225   YY=             -3.2170   ZZ=            -20.6055
   XY=              0.5971   XZ=             -7.6485   YZ=              2.4049
 Octapole moment (field-independent basis, Debye-Ang**2):
  XXX=            -70.6213  YYY=            102.2969  ZZZ=             14.3680  XYY=            -45.6725
  XXY=             -1.7685  XXZ=             12.5876  XZZ=              0.1180  YZZ=            -15.6926
  YYZ=            -27.8755  XYZ=             -1.0861
 Hexadecapole moment (field-independent basis, Debye-Ang**3):
 XXXX=          -6681.1760 YYYY=          -3629.2086 ZZZZ=          -1947.9487 XXXY=            -22.5582
 XXXZ=            -51.0695 YYYX=            -53.2279 YYYZ=            -58.7909 ZZZX=             -8.8723
 ZZZY=             24.6484 XXYY=          -1678.9177 XXZZ=          -1446.5119 YYZZ=           -957.6102
 XXYZ=             25.7519 YYXZ=            -32.6815 ZZXY=             36.7945
 N-N= 3.252124800098D+03 E-N=-9.942030566343D+03  KE= 1.410540155739D+03
 1\1\GINC-NODE254\SP\RPBE1PBE TD-FC\GenECP\C20H37N2O2P1Ru1\JS1212\21-Ma
 y-2021\0\\# genecp pbe1pbe EmpiricalDispersion=GD3BJ scrf=(SMD,solvent
 =water) td=nstates=25 geom=allcheck\\Title Card Required\\0,1\N,0,-0.7
 939372714,1.4223725821,-0.0331774301\C,0,-2.0069811701,1.8457005099,0.
 344644741\C,0,0.0955503074,2.2520717997,-0.6015751566\C,0,-2.393029639
 1,3.1696287905,0.1742555401\C,0,-1.4771747833,4.0571504883,-0.38802323
 11\C,0,-0.2227476723,3.5990006074,-0.77767886\C,0,-2.8308880779,0.7837
 489969,1.0039710102\H,0,-3.3871307209,3.4969901565,0.4802248721\H,0,-1
 .7451500279,5.1058631395,-0.5296985242\H,0,0.5051949813,4.2733533482,-
 1.2297873908\C,0,1.3856015865,1.6328648322,-1.0399609473\N,0,-2.675331
 7314,-0.5235074791,0.3341385024\H,0,-3.8894234397,1.0874326117,1.07341
 31669\H,0,-2.4459661554,0.6560755003,2.0288125797\H,0,1.2077614689,1.2
 450548577,-2.0586107541\P,0,1.7293646219,0.067065238,-0.0764247359\H,0
 ,2.2083076187,2.36178162,-1.0591354344\Ru,0,-0.4058509953,-0.635870449
 1,0.1224641673\C,0,-3.3194777926,-0.5154976241,-1.001027499\C,0,2.9842
 252617,-0.8448485227,-1.1759672409\C,0,-3.242113421,-1.5496807646,1.23
 90148458\C,0,2.5735599458,0.6514615299,1.5271766665\C,0,2.1869749652,-
 1.5753390011,-2.2613946785\C,0,3.7438332517,-1.8936821427,-0.361417416
 3\C,0,3.9656594203,0.1120288863,-1.8582083664\C,0,1.6736126426,1.73170
 41012,2.1368644455\C,0,3.9663681116,1.2456636327,1.3247080563\C,0,2.62
 53000693,-0.5230432872,2.5081899426\H,0,-0.3831263868,-0.5654726032,1.
 7442942789\H,0,-2.7241021658,0.1618833762,-1.6297839498\C,0,-4.8053769
 685,-0.1954805235,-1.0358097866\H,0,-3.1351340756,-1.5063344356,-1.434
 5935398\H,0,-2.5972584848,-1.5475380696,2.1294730312\C,0,-3.3037485543
 ,-2.9427475615,0.6511004484\H,0,-4.2559099715,-1.2380743657,1.56011365
 17\C,0,0.0218192035,-2.3972431089,0.3289517229\O,0,-0.6258336225,-0.35
 75889911,-2.0109106546\H,0,-0.6813150048,-1.2277124498,-2.4213112733\H
 ,0,-2.3322854441,-3.2418038053,0.2348267404\H,0,-4.0660289267,-3.03562
 13948,-0.1362243834\H,0,-3.5638993289,-3.6556142029,1.4473090098\H,0,-
 5.1605876945,-0.299471729,-2.0721652574\H,0,-5.0296492058,0.8367739419
 ,-0.7262955094\H,0,-5.4086272697,-0.8758916462,-0.4142347514\H,0,2.893
 1214479,-1.9716736121,-3.0102599736\H,0,1.451690848,-0.9197193336,-2.7
 491238047\H,0,1.6291756929,-2.4195305405,-1.833596823\H,0,4.3265843515
 ,-2.5219458188,-1.0556864728\H,0,3.0565896995,-2.5569264702,0.18466587
 02\H,0,4.4513114018,-1.4530384971,0.3544448879\H,0,4.6880111603,-0.481
 2666399,-2.4436823225\H,0,4.5389371171,0.7258382929,-1.1522379016\H,0,
 3.4533843809,0.7818767884,-2.564125339\H,0,4.7008544186,0.5040428802,0
 .9833365129\H,0,4.3285381256,1.6435210595,2.2877573866\H,0,3.960934557
 8,2.0832607582,0.6097785334\H,0,3.3094785736,-1.3173749803,2.183722509
 1\H,0,1.6230943638,-0.9577528191,2.6356177035\H,0,2.9768372202,-0.1588
 067459,3.4881698472\H,0,2.0763385862,2.0086766526,3.1252622247\H,0,0.6
 481012047,1.3596452546,2.2714256179\H,0,1.6439876905,2.6465961766,1.52
 57929084\O,0,0.3501517054,-3.5048387945,0.4953479872\\Version=ES64L-G1
 6RevA.03\State=1-A\HF=-1479.5117587\RMSD=4.175e-09\PG=C01 [X(C20H37N2O
 2P1Ru1)]\\@


 THE UNDERLYING PHYSICAL LAWS NECESSARY FOR THE 
 MATHEMATICAL THEORY OF A LARGE PART OF PHYSICS AND THE
 WHOLE OF CHEMISTRY ARE THUS COMPLETELY KNOWN, AND THE
 DIFFICULTY IS ONLY THAT THE EXACT APPLICATION OF THESE
 LAWS LEADS TO EQUATIONS MUCH TOO COMPLICATED 
 TO BE SOLUBLE.

                                        -- P. A. M. DIRAC, 1929
 Job cpu time:       0 days 15 hours 29 minutes 54.0 seconds.
 Elapsed time:       0 days  0 hours 46 minutes 41.2 seconds.
 File lengths (MBytes):  RWF=   4442 Int=      0 D2E=      0 Chk=    325 Scr=      1
 Normal termination of Gaussian 16 at Fri May 21 15:51:00 2021.
