 Entering Gaussian System, Link 0=g16
 Initial command:
 /cluster/chemistry/gaussian/g16/l1.exe "/scratch/js1212.723651/scratch/Gau-24038.inp" -scrdir="/scratch/js1212.723651/scratch/"
 Entering Link 1 = /cluster/chemistry/gaussian/g16/l1.exe PID=     24039.
  
 Copyright (c) 1988,1990,1992,1993,1995,1998,2003,2009,2016,
            Gaussian, Inc.  All Rights Reserved.
  
 This is part of the Gaussian(R) 16 program.  It is based on
 the Gaussian(R) 09 system (copyright 2009, Gaussian, Inc.),
 the Gaussian(R) 03 system (copyright 2003, Gaussian, Inc.),
 the Gaussian(R) 98 system (copyright 1998, Gaussian, Inc.),
 the Gaussian(R) 94 system (copyright 1995, Gaussian, Inc.),
 the Gaussian 92(TM) system (copyright 1992, Gaussian, Inc.),
 the Gaussian 90(TM) system (copyright 1990, Gaussian, Inc.),
 the Gaussian 88(TM) system (copyright 1988, Gaussian, Inc.),
 the Gaussian 86(TM) system (copyright 1986, Carnegie Mellon
 University), and the Gaussian 82(TM) system (copyright 1983,
 Carnegie Mellon University). Gaussian is a federally registered
 trademark of Gaussian, Inc.
  
 This software contains proprietary and confidential information,
 including trade secrets, belonging to Gaussian, Inc.
  
 This software is provided under written license and may be
 used, copied, transmitted, or stored only in accord with that
 written license.
  
 The following legend is applicable only to US Government
 contracts under FAR:
  
                    RESTRICTED RIGHTS LEGEND
  
 Use, reproduction and disclosure by the US Government is
 subject to restrictions as set forth in subparagraphs (a)
 and (c) of the Commercial Computer Software - Restricted
 Rights clause in FAR 52.227-19.
  
 Gaussian, Inc.
 340 Quinnipiac St., Bldg. 40, Wallingford CT 06492
  
  
 ---------------------------------------------------------------
 Warning -- This program may not be used in any manner that
 competes with the business of Gaussian, Inc. or will provide
 assistance to any competitor of Gaussian, Inc.  The licensee
 of this program is prohibited from giving any competitor of
 Gaussian, Inc. access to this program.  By using this program,
 the user acknowledges that Gaussian, Inc. is engaged in the
 business of creating and licensing software in the field of
 computational chemistry and represents and warrants to the
 licensee that it is not a competitor of Gaussian, Inc. and that
 it will not use this program in any manner prohibited above.
 ---------------------------------------------------------------
  

 Cite this work as:
 Gaussian 16, Revision A.03,
 M. J. Frisch, G. W. Trucks, H. B. Schlegel, G. E. Scuseria, 
 M. A. Robb, J. R. Cheeseman, G. Scalmani, V. Barone, 
 G. A. Petersson, H. Nakatsuji, X. Li, M. Caricato, A. V. Marenich, 
 J. Bloino, B. G. Janesko, R. Gomperts, B. Mennucci, H. P. Hratchian, 
 J. V. Ortiz, A. F. Izmaylov, J. L. Sonnenberg, D. Williams-Young, 
 F. Ding, F. Lipparini, F. Egidi, J. Goings, B. Peng, A. Petrone, 
 T. Henderson, D. Ranasinghe, V. G. Zakrzewski, J. Gao, N. Rega, 
 G. Zheng, W. Liang, M. Hada, M. Ehara, K. Toyota, R. Fukuda, 
 J. Hasegawa, M. Ishida, T. Nakajima, Y. Honda, O. Kitao, H. Nakai, 
 T. Vreven, K. Throssell, J. A. Montgomery, Jr., J. E. Peralta, 
 F. Ogliaro, M. J. Bearpark, J. J. Heyd, E. N. Brothers, K. N. Kudin, 
 V. N. Staroverov, T. A. Keith, R. Kobayashi, J. Normand, 
 K. Raghavachari, A. P. Rendell, J. C. Burant, S. S. Iyengar, 
 J. Tomasi, M. Cossi, J. M. Millam, M. Klene, C. Adamo, R. Cammi, 
 J. W. Ochterski, R. L. Martin, K. Morokuma, O. Farkas, 
 J. B. Foresman, and D. J. Fox, Gaussian, Inc., Wallingford CT, 2016.
 
 ******************************************
 Gaussian 16:  ES64L-G16RevA.03 25-Dec-2016
                13-Mar-2020 
 ******************************************
 %rwf=/scratch/js1212.723651/G-R2-R2-Down-GP-T-SMD.rwf
 %nosave
 %nprocshared=16
 Will use up to   16 processors via shared memory.
 %mem=3000MB
 %chk=/scratch/js1212.723651/G-R2-R2-Down-GPO-T-H2O-Moved.chk
 ----------------------------------------------------------------------
 # genecp pbe1pbe EmpiricalDispersion=GD3BJ scrf=(SMD,solvent=water) ge
 om=allcheck
 ----------------------------------------------------------------------
 1/29=7,38=1,172=1/1;
 2/12=2,40=1/2;
 3/5=7,11=2,14=-4,16=1,17=8,25=1,30=1,70=32201,72=1,74=-13,124=41/1,2,3;
 4//1;
 5/5=2,38=5,53=1/2;
 6/7=2,8=2,9=2,10=2,28=1/1;
 99/5=1,9=1/99;
 Structure from the checkpoint file:  "/scratch/js1212.723651/G-R2-R2-Down-GPO-T-H2O-Moved.chk"
 -------------------
 Title Card Required
 -------------------
 Charge =  0 Multiplicity = 3
 Redundant internal coordinates found in file.  (old form).
 H,0,-0.0829430788,-3.7119200872,-2.3645937809
 C,0,-1.0714019335,-3.4238173566,-1.9805898425
 H,0,-1.7431147061,-4.2831612036,-2.1319834927
 H,0,-1.4338800197,-2.5685016477,-2.5738265204
 H,0,-1.2262347471,2.7254565651,-1.1627811506
 O,0,-1.8549851589,-0.4245746277,-2.3976474366
 H,0,-2.8740037374,2.335808004,-3.4430456823
 O,0,-1.1896941486,0.17408182,0.18171505
 H,0,-0.4913866825,0.5399602469,-2.2675758205
 C,0,-0.9275198667,-3.0295912427,-0.5278520154
 H,0,-1.3613376256,4.3168164692,-0.3783607988
 H,0,-0.5627307164,-3.8809891608,0.0776188272
 C,0,-1.931592184,3.5270220687,-0.8956730257
 H,0,-3.5067720527,0.692403795,-3.5336156866
 H,0,-2.3150955254,3.9638135763,-1.8298448618
 H,0,-0.1825319422,-2.23075197,-0.4088715059
 C,0,-3.8014622518,1.7516057324,-3.5365610281
 H,0,-4.2631403741,1.9995802949,-4.5067070842
 H,0,-1.0266145993,-1.5511023936,1.4867092753
 Ru,0,-2.8775651067,-0.5219452899,-0.7731122959
 H,0,-1.8761983539,1.6642161976,1.2199771084
 N,0,-2.188575475,-2.5286215971,0.0719819979
 C,0,-1.9401912515,-2.1657604108,1.4814570762
 C,0,-3.0628953783,3.0593298055,0.0221811994
 H,0,-1.8445919856,3.3808103409,1.757469144
 H,0,-4.3071559015,4.2280292121,-2.4915120712
 C,0,-2.4820480809,2.57412081,1.3572993126
 C,0,-4.7937843334,2.0852115779,-2.4166239705
 P,0,-3.9278267647,1.5709410864,-0.7961947883
 H,0,-1.7593075182,-3.0572199068,2.1042961748
 C,0,-5.1784323447,3.5615002997,-2.5103263937
 H,0,-3.5324707189,-3.6539894044,-1.0688332462
 H,0,-2.1721967174,-5.4180545799,0.0935389566
 H,0,-5.6846894013,3.7168536259,-3.4774676695
 C,0,-3.2798798814,-3.532811757,-0.0091773173
 H,0,-3.4516878331,4.9201509468,1.0024739473
 C,0,-4.2668284467,-1.3260177048,-1.6648689342
 C,0,-4.0009708404,4.2288938888,0.3421728364
 H,0,-5.936612436,0.1947805612,-2.5253840961
 C,0,-6.0814760283,1.2776347883,-2.5971444635
 H,0,-4.3127850285,4.800664835,-0.5368214445
 H,0,-6.4739482866,1.4826194902,-3.6066358842
 C,0,-3.0703900545,-1.3518311153,2.0393732907
 N,0,-3.6935161425,-0.552735062,1.154414509
 C,0,-2.9974539693,-4.897591635,0.600196463
 H,0,-3.2737303846,2.3902369943,2.1003228534
 H,0,-4.1624707142,-3.0834059065,0.4699362965
 H,0,-5.8797620595,3.866270859,-1.7205330343
 H,0,-2.7655912283,-4.8518410637,1.6746092838
 C,0,-5.2658003455,1.1306934263,0.4446101616
 H,0,-3.8973853621,-5.5208558977,0.4893178512
 H,0,-4.9011910141,3.9157998234,0.8935341867
 C,0,-4.6812989341,0.2798843448,1.533887775
 C,0,-3.4463512751,-1.3547527021,3.378616406
 H,0,-6.8593561833,1.5827397557,-1.879956473
 H,0,-2.9353755929,-2.0106328827,4.0842843774
 H,0,-5.9956164403,0.5252667859,-0.1166736068
 H,0,-5.7967020053,2.0005709798,0.8555772629
 C,0,-5.0943395405,0.322226813,2.8632079386
 C,0,-4.4686990284,-0.5047594185,3.7926677589
 H,0,-5.8921665797,1.0026944461,3.1622000652
 H,0,-4.7775045806,-0.4850877775,4.8393215249
 O,0,-5.0786374417,-1.909722485,-2.258505084
 C,0,-0.1473534539,0.9281367054,4.2107114835
 H,0,1.2900469986,-1.2724022713,-2.0816062495
 O,0,0.1665939944,1.2735828747,-2.0840123424
 H,0,2.4325779561,1.446736926,-3.1726250055
 O,0,1.2688720217,-0.9666333848,0.622644665
 H,0,0.8963209601,0.8599155773,-1.5941606203
 C,0,0.5217073282,1.0414285265,2.8484035607
 H,0,1.7574153798,-2.5664919516,-3.2127968468
 C,0,2.0874802835,-1.6209912504,-2.7511940786
 H,0,3.0546718641,2.5424747294,-1.9357240558
 H,0,2.2050163777,-0.885487678,-3.5606469937
 C,0,3.3351433954,1.9735441822,-2.8319855009
 H,0,3.6308488168,2.6870867937,-3.6197961772
 H,0,1.5428252993,-1.2450489767,2.7337281945
 Ru,0,2.6880168201,0.5664194747,0.5894639446
 H,0,2.3712095537,-2.3756074359,-0.1081679306
 N,0,1.9746466571,0.7704238194,2.7948609325
 C,0,2.2563305193,-0.5983562449,3.2727684008
 C,0,3.382586092,-1.8597429993,-1.9760710864
 H,0,2.6760607927,-3.7458035143,-1.2296060638
 H,0,4.1176408003,-0.1321568341,-4.3777517096
 C,0,3.0987134068,-2.8159621672,-0.8093263085
 C,0,4.5069978929,1.0270959501,-2.5537374782
 P,0,3.9037251174,-0.1957750843,-1.2004179037
 H,0,2.1182710638,-0.6847240746,4.3648547688
 C,0,4.9416080983,0.3871481594,-3.8709803341
 H,0,3.8216076969,1.5625649685,3.3260110175
 H,0,2.3636381028,3.4508829265,2.3340048699
 H,0,5.2823212178,1.1904834046,-4.5458904702
 C,0,2.7678305468,1.7271311136,3.5971001241
 H,0,4.1132019745,-3.5795561741,-3.027900635
 C,0,3.6075221804,2.139316478,0.5758535904
 C,0,4.4242006252,-2.5322906651,-2.875719283
 H,0,5.5119997802,2.2978999913,-1.0526769525
 C,0,5.6967866126,1.8383708876,-2.0312611139
 H,0,4.5114761236,-2.0742053634,-3.8659027632
 H,0,5.8911456945,2.6592628428,-2.7416620577
 C,0,3.6242479819,-1.0860849556,2.8851771074
 N,0,4.0158183061,-0.7296088184,1.6552994524
 C,0,2.4025366385,3.1843262654,3.3978844589
 H,0,4.0223506759,-3.0964174097,-0.2780007683
 H,0,2.6697395701,1.4701252509,4.6709002047
 H,0,5.7799436657,-0.3121948079,-3.7446049208
 H,0,1.4363625606,3.4360818845,3.8592086068
 C,0,5.4716045291,-0.6777267454,-0.2638705343
 H,0,3.1707697878,3.8139853942,3.8702054007
 H,0,5.4254247581,-2.5628601059,-2.4184304802
 C,0,5.1556539881,-1.1836284424,1.1130582644
 C,0,4.4110587209,-1.9271461003,3.6657434198
 H,0,6.6143977022,1.2322470725,-1.9789578089
 H,0,4.0910848498,-2.2036181178,4.6714480508
 H,0,6.0291744956,0.2649058912,-0.1476212554
 H,0,6.1225323144,-1.3781712764,-0.807802854
 C,0,5.9771979203,-2.0489384317,1.8366634863
 C,0,5.6005988749,-2.4150045312,3.1261198969
 H,0,6.9010049382,-2.423814928,1.3938948682
 H,0,6.235317227,-3.0825671432,3.7121627691
 H,0,0.4053490117,-0.5621992274,0.3933730766
 O,0,4.1449690705,3.1843148521,0.5938484574
 H,0,-1.2128522218,1.181677148,4.0982251175
 H,0,0.2791723572,1.6115141711,4.9620523904
 H,0,-0.1002948952,-0.0945536709,4.61627264
 H,0,0.0518095897,0.358888709,2.1297091626
 H,0,0.373583742,2.0477200133,2.4371941762
 H,0,-0.7566124106,0.764183818,-0.4580663812
 Recover connectivity data from disk.
                           ----------------------------
                           !    Current Parameters    !
                           ! (Angstroms and Degrees)  !
 --------------------------                            --------------------------
 ! Name  Definition              Value                                          !
 --------------------------------------------------------------------------------
 ! R1    R(1,2)                  1.0989                                         !
 ! R2    R(2,3)                  1.1012                                         !
 ! R3    R(2,4)                  1.1022                                         !
 ! R4    R(2,10)                 1.5121                                         !
 ! R5    R(5,13)                 1.1006                                         !
 ! R6    R(6,9)                  1.6753                                         !
 ! R7    R(6,20)                 1.922                                          !
 ! R8    R(7,17)                 1.1001                                         !
 ! R9    R(8,20)                 2.0604                                         !
 ! R10   R(8,121)                1.7695                                         !
 ! R11   R(8,128)                0.9722                                         !
 ! R12   R(9,14)                 3.2739                                         !
 ! R13   R(9,66)                 1.0024                                         !
 ! R14   R(10,12)                1.1066                                         !
 ! R15   R(10,16)                1.0988                                         !
 ! R16   R(10,22)                1.4836                                         !
 ! R17   R(11,13)                1.103                                          !
 ! R18   R(13,15)                1.1002                                         !
 ! R19   R(13,24)                1.53                                           !
 ! R20   R(14,17)                1.0994                                         !
 ! R21   R(17,18)                1.1026                                         !
 ! R22   R(17,28)                1.5331                                         !
 ! R23   R(19,23)                1.1011                                         !
 ! R24   R(20,29)                2.3417                                         !
 ! R25   R(20,37)                1.8363                                         !
 ! R26   R(20,44)                2.0933                                         !
 ! R27   R(21,27)                1.1017                                         !
 ! R28   R(22,23)                1.4765                                         !
 ! R29   R(22,35)                1.4852                                         !
 ! R30   R(23,30)                1.1024                                         !
 ! R31   R(23,43)                1.5004                                         !
 ! R32   R(24,27)                1.5347                                         !
 ! R33   R(24,29)                1.9061                                         !
 ! R34   R(24,38)                1.5331                                         !
 ! R35   R(25,27)                1.1033                                         !
 ! R36   R(26,31)                1.0971                                         !
 ! R37   R(27,46)                1.1012                                         !
 ! R38   R(28,29)                1.9079                                         !
 ! R39   R(28,31)                1.5285                                         !
 ! R40   R(28,40)                1.5307                                         !
 ! R41   R(29,50)                1.8771                                         !
 ! R42   R(31,34)                1.1026                                         !
 ! R43   R(31,48)                1.0993                                         !
 ! R44   R(32,35)                1.0961                                         !
 ! R45   R(33,45)                1.0994                                         !
 ! R46   R(35,45)                1.5211                                         !
 ! R47   R(35,47)                1.1002                                         !
 ! R48   R(36,38)                1.1025                                         !
 ! R49   R(37,63)                1.1628                                         !
 ! R50   R(38,41)                1.094                                          !
 ! R51   R(38,52)                1.1011                                         !
 ! R52   R(39,40)                1.0949                                         !
 ! R53   R(40,42)                1.1023                                         !
 ! R54   R(40,55)                1.1012                                         !
 ! R55   R(43,44)                1.3454                                         !
 ! R56   R(43,54)                1.391                                          !
 ! R57   R(44,53)                1.3465                                         !
 ! R58   R(45,49)                1.1001                                         !
 ! R59   R(45,51)                1.1003                                         !
 ! R60   R(50,53)                1.5007                                         !
 ! R61   R(50,57)                1.1019                                         !
 ! R62   R(50,58)                1.0988                                         !
 ! R63   R(53,59)                1.3927                                         !
 ! R64   R(54,56)                1.0905                                         !
 ! R65   R(54,60)                1.3925                                         !
 ! R66   R(59,60)                1.3926                                         !
 ! R67   R(59,61)                1.0904                                         !
 ! R68   R(60,62)                1.0914                                         !
 ! R69   R(64,70)                1.522                                          !
 ! R70   R(64,123)               1.101                                          !
 ! R71   R(64,124)               1.1016                                         !
 ! R72   R(64,125)               1.1012                                         !
 ! R73   R(65,72)                1.0981                                         !
 ! R74   R(66,69)                0.9714                                         !
 ! R75   R(67,75)                1.0992                                         !
 ! R76   R(68,78)                2.0893                                         !
 ! R77   R(68,121)               0.9807                                         !
 ! R78   R(69,73)                2.7579                                         !
 ! R79   R(69,78)                2.8398                                         !
 ! R80   R(70,80)                1.479                                          !
 ! R81   R(70,126)               1.0969                                         !
 ! R82   R(70,127)               1.0971                                         !
 ! R83   R(71,72)                1.1027                                         !
 ! R84   R(72,74)                1.1                                            !
 ! R85   R(72,82)                1.5281                                         !
 ! R86   R(73,75)                1.098                                          !
 ! R87   R(75,76)                1.1033                                         !
 ! R88   R(75,86)                1.5318                                         !
 ! R89   R(77,81)                1.1036                                         !
 ! R90   R(78,87)                2.294                                          !
 ! R91   R(78,95)                1.822                                          !
 ! R92   R(78,102)               2.1398                                         !
 ! R93   R(79,85)                1.1022                                         !
 ! R94   R(80,81)                1.4769                                         !
 ! R95   R(80,93)                1.4792                                         !
 ! R96   R(81,88)                1.1042                                         !
 ! R97   R(81,101)               1.5031                                         !
 ! R98   R(82,85)                1.535                                          !
 ! R99   R(82,87)                1.9084                                         !
 ! R100  R(82,96)                1.5319                                         !
 ! R101  R(83,85)                1.1045                                         !
 ! R102  R(84,89)                1.0979                                         !
 ! R103  R(85,104)               1.1018                                         !
 ! R104  R(86,87)                1.9212                                         !
 ! R105  R(86,89)                1.5276                                         !
 ! R106  R(86,98)                1.5319                                         !
 ! R107  R(87,108)               1.8888                                         !
 ! R108  R(89,92)                1.1031                                         !
 ! R109  R(89,106)               1.099                                          !
 ! R110  R(90,93)                1.1005                                         !
 ! R111  R(91,103)               1.0975                                         !
 ! R112  R(93,103)               1.5154                                         !
 ! R113  R(93,105)               1.1085                                         !
 ! R114  R(94,96)                1.103                                          !
 ! R115  R(95,122)               1.1752                                         !
 ! R116  R(96,99)                1.0945                                         !
 ! R117  R(96,110)               1.1011                                         !
 ! R118  R(97,98)                1.0968                                         !
 ! R119  R(98,100)               1.1029                                         !
 ! R120  R(98,113)               1.101                                          !
 ! R121  R(101,102)              1.339                                          !
 ! R122  R(101,112)              1.3913                                         !
 ! R123  R(102,111)              1.3414                                         !
 ! R124  R(103,107)              1.0999                                         !
 ! R125  R(103,109)              1.0999                                         !
 ! R126  R(108,111)              1.5006                                         !
 ! R127  R(108,115)              1.1013                                         !
 ! R128  R(108,116)              1.1001                                         !
 ! R129  R(111,117)              1.3955                                         !
 ! R130  R(112,114)              1.091                                          !
 ! R131  R(112,118)              1.3943                                         !
 ! R132  R(117,118)              1.3923                                         !
 ! R133  R(117,119)              1.0909                                         !
 ! R134  R(118,120)              1.0918                                         !
 ! R135  R(121,128)              1.9582                                         !
 ! A1    A(1,2,3)              107.221                                          !
 ! A2    A(1,2,4)              108.1308                                         !
 ! A3    A(1,2,10)             108.5715                                         !
 ! A4    A(3,2,4)              109.328                                          !
 ! A5    A(3,2,10)             113.1773                                         !
 ! A6    A(4,2,10)             110.2466                                         !
 ! A7    A(9,6,20)             113.3647                                         !
 ! A8    A(20,8,121)           130.7925                                         !
 ! A9    A(20,8,128)           105.3681                                         !
 ! A10   A(6,9,14)              41.1597                                         !
 ! A11   A(6,9,66)             165.8925                                         !
 ! A12   A(14,9,66)            129.8884                                         !
 ! A13   A(2,10,12)            110.8816                                         !
 ! A14   A(2,10,16)            110.9827                                         !
 ! A15   A(2,10,22)            113.3025                                         !
 ! A16   A(12,10,16)           106.0579                                         !
 ! A17   A(12,10,22)           108.5896                                         !
 ! A18   A(16,10,22)           106.6807                                         !
 ! A19   A(5,13,11)            107.6964                                         !
 ! A20   A(5,13,15)            107.8454                                         !
 ! A21   A(5,13,24)            113.3797                                         !
 ! A22   A(11,13,15)           107.1071                                         !
 ! A23   A(11,13,24)           108.6506                                         !
 ! A24   A(15,13,24)           111.8986                                         !
 ! A25   A(9,14,17)            107.0236                                         !
 ! A26   A(7,17,14)            106.5833                                         !
 ! A27   A(7,17,18)            107.9603                                         !
 ! A28   A(7,17,28)            111.5951                                         !
 ! A29   A(14,17,18)           109.3444                                         !
 ! A30   A(14,17,28)           112.4071                                         !
 ! A31   A(18,17,28)           108.8316                                         !
 ! A32   A(6,20,8)              86.4877                                         !
 ! A33   A(6,20,29)            100.6614                                         !
 ! A34   A(6,20,37)             90.8156                                         !
 ! A35   A(8,20,29)             94.0176                                         !
 ! A36   A(8,20,44)             84.1206                                         !
 ! A37   A(29,20,37)            92.708                                          !
 ! A38   A(29,20,44)            81.2227                                         !
 ! A39   A(37,20,44)            98.3854                                         !
 ! A40   A(10,22,23)           109.0237                                         !
 ! A41   A(10,22,35)           111.9721                                         !
 ! A42   A(23,22,35)           109.9948                                         !
 ! A43   A(19,23,22)           106.3388                                         !
 ! A44   A(19,23,30)           108.2138                                         !
 ! A45   A(19,23,43)           108.6864                                         !
 ! A46   A(22,23,30)           111.6049                                         !
 ! A47   A(22,23,43)           111.1972                                         !
 ! A48   A(30,23,43)           110.6209                                         !
 ! A49   A(13,24,27)           109.7958                                         !
 ! A50   A(13,24,29)           108.4601                                         !
 ! A51   A(13,24,38)           110.1482                                         !
 ! A52   A(27,24,29)           107.3602                                         !
 ! A53   A(27,24,38)           106.9298                                         !
 ! A54   A(29,24,38)           114.0586                                         !
 ! A55   A(21,27,24)           111.1492                                         !
 ! A56   A(21,27,25)           109.3504                                         !
 ! A57   A(21,27,46)           109.97                                           !
 ! A58   A(24,27,25)           107.6407                                         !
 ! A59   A(24,27,46)           111.5728                                         !
 ! A60   A(25,27,46)           107.0221                                         !
 ! A61   A(17,28,29)           105.5457                                         !
 ! A62   A(17,28,31)           109.1651                                         !
 ! A63   A(17,28,40)           110.0947                                         !
 ! A64   A(29,28,31)           115.2543                                         !
 ! A65   A(29,28,40)           109.8637                                         !
 ! A66   A(31,28,40)           106.897                                          !
 ! A67   A(20,29,24)           119.3493                                         !
 ! A68   A(20,29,28)           116.9257                                         !
 ! A69   A(20,29,50)            95.9438                                         !
 ! A70   A(24,29,28)           111.1084                                         !
 ! A71   A(24,29,50)           102.872                                          !
 ! A72   A(28,29,50)           107.5246                                         !
 ! A73   A(26,31,28)           112.6982                                         !
 ! A74   A(26,31,34)           107.1011                                         !
 ! A75   A(26,31,48)           109.019                                          !
 ! A76   A(28,31,34)           107.7824                                         !
 ! A77   A(28,31,48)           112.5989                                         !
 ! A78   A(34,31,48)           107.3484                                         !
 ! A79   A(22,35,32)           107.2719                                         !
 ! A80   A(22,35,45)           116.6357                                         !
 ! A81   A(22,35,47)           106.8256                                         !
 ! A82   A(32,35,45)           109.3235                                         !
 ! A83   A(32,35,47)           106.3376                                         !
 ! A84   A(45,35,47)           109.9368                                         !
 ! A85   A(24,38,36)           107.3661                                         !
 ! A86   A(24,38,41)           113.9181                                         !
 ! A87   A(24,38,52)           112.8212                                         !
 ! A88   A(36,38,41)           107.1887                                         !
 ! A89   A(36,38,52)           106.6009                                         !
 ! A90   A(41,38,52)           108.5372                                         !
 ! A91   A(28,40,39)           113.7519                                         !
 ! A92   A(28,40,42)           108.0241                                         !
 ! A93   A(28,40,55)           111.7952                                         !
 ! A94   A(39,40,42)           106.9208                                         !
 ! A95   A(39,40,55)           108.9547                                         !
 ! A96   A(42,40,55)           107.0625                                         !
 ! A97   A(23,43,44)           115.2465                                         !
 ! A98   A(23,43,54)           124.0882                                         !
 ! A99   A(44,43,54)           120.6217                                         !
 ! A100  A(20,44,43)           115.7143                                         !
 ! A101  A(20,44,53)           122.4362                                         !
 ! A102  A(43,44,53)           121.4459                                         !
 ! A103  A(33,45,35)           112.3037                                         !
 ! A104  A(33,45,49)           108.1541                                         !
 ! A105  A(33,45,51)           107.419                                          !
 ! A106  A(35,45,49)           113.1464                                         !
 ! A107  A(35,45,51)           108.4219                                         !
 ! A108  A(49,45,51)           107.1194                                         !
 ! A109  A(29,50,53)           109.5816                                         !
 ! A110  A(29,50,57)           105.322                                          !
 ! A111  A(29,50,58)           113.9497                                         !
 ! A112  A(53,50,57)           108.4331                                         !
 ! A113  A(53,50,58)           111.4401                                         !
 ! A114  A(57,50,58)           107.7858                                         !
 ! A115  A(44,53,50)           115.5789                                         !
 ! A116  A(44,53,59)           120.3573                                         !
 ! A117  A(50,53,59)           124.0621                                         !
 ! A118  A(43,54,56)           119.8432                                         !
 ! A119  A(43,54,60)           118.909                                          !
 ! A120  A(56,54,60)           121.2459                                         !
 ! A121  A(53,59,60)           119.0642                                         !
 ! A122  A(53,59,61)           119.849                                          !
 ! A123  A(60,59,61)           121.0852                                         !
 ! A124  A(54,60,59)           119.5956                                         !
 ! A125  A(54,60,62)           120.2559                                         !
 ! A126  A(59,60,62)           120.1484                                         !
 ! A127  A(70,64,123)          108.4716                                         !
 ! A128  A(70,64,124)          113.2114                                         !
 ! A129  A(70,64,125)          112.3343                                         !
 ! A130  A(123,64,124)         107.55                                           !
 ! A131  A(123,64,125)         107.0287                                         !
 ! A132  A(124,64,125)         107.963                                          !
 ! A133  A(9,66,69)            105.8895                                         !
 ! A134  A(78,68,121)          106.9636                                         !
 ! A135  A(66,69,73)           105.4055                                         !
 ! A136  A(66,69,78)           154.923                                          !
 ! A137  A(73,69,78)            70.3986                                         !
 ! A138  A(64,70,80)           116.7843                                         !
 ! A139  A(64,70,126)          110.5996                                         !
 ! A140  A(64,70,127)          110.1462                                         !
 ! A141  A(80,70,126)          106.4458                                         !
 ! A142  A(80,70,127)          106.6866                                         !
 ! A143  A(126,70,127)         105.5048                                         !
 ! A144  A(65,72,71)           108.0643                                         !
 ! A145  A(65,72,74)           108.3037                                         !
 ! A146  A(65,72,82)           110.8407                                         !
 ! A147  A(71,72,74)           107.2928                                         !
 ! A148  A(71,72,82)           109.3932                                         !
 ! A149  A(74,72,82)           112.7788                                         !
 ! A150  A(69,73,75)            89.1339                                         !
 ! A151  A(67,75,73)           106.9508                                         !
 ! A152  A(67,75,76)           107.9845                                         !
 ! A153  A(67,75,86)           112.8514                                         !
 ! A154  A(73,75,76)           108.434                                          !
 ! A155  A(73,75,86)           111.5483                                         !
 ! A156  A(76,75,86)           108.9211                                         !
 ! A157  A(68,78,69)            70.0929                                         !
 ! A158  A(68,78,87)            97.3862                                         !
 ! A159  A(68,78,102)           88.2324                                         !
 ! A160  A(69,78,87)            76.6289                                         !
 ! A161  A(69,78,95)           102.9112                                         !
 ! A162  A(87,78,95)            90.7765                                         !
 ! A163  A(87,78,102)           81.8685                                         !
 ! A164  A(95,78,102)          102.3235                                         !
 ! A165  A(70,80,81)           110.2108                                         !
 ! A166  A(70,80,93)           112.87                                           !
 ! A167  A(81,80,93)           108.7629                                         !
 ! A168  A(77,81,80)           105.1726                                         !
 ! A169  A(77,81,88)           110.8812                                         !
 ! A170  A(77,81,101)          105.801                                          !
 ! A171  A(80,81,88)           111.6349                                         !
 ! A172  A(80,81,101)          113.0077                                         !
 ! A173  A(88,81,101)          110.0873                                         !
 ! A174  A(72,82,85)           109.035                                          !
 ! A175  A(72,82,87)           107.5401                                         !
 ! A176  A(72,82,96)           110.3027                                         !
 ! A177  A(85,82,87)           106.5422                                         !
 ! A178  A(85,82,96)           107.3762                                         !
 ! A179  A(87,82,96)           115.8373                                         !
 ! A180  A(79,85,82)           110.8989                                         !
 ! A181  A(79,85,83)           109.0167                                         !
 ! A182  A(79,85,104)          110.3793                                         !
 ! A183  A(82,85,83)           107.8171                                         !
 ! A184  A(82,85,104)          111.7195                                         !
 ! A185  A(83,85,104)          106.8571                                         !
 ! A186  A(75,86,87)           106.3211                                         !
 ! A187  A(75,86,89)           108.6542                                         !
 ! A188  A(75,86,98)           109.2024                                         !
 ! A189  A(87,86,89)           115.4746                                         !
 ! A190  A(87,86,98)           109.9213                                         !
 ! A191  A(89,86,98)           107.1567                                         !
 ! A192  A(78,87,82)           117.5227                                         !
 ! A193  A(78,87,86)           120.3012                                         !
 ! A194  A(78,87,108)           97.9209                                         !
 ! A195  A(82,87,86)           110.7592                                         !
 ! A196  A(82,87,108)          101.872                                          !
 ! A197  A(86,87,108)          104.5391                                         !
 ! A198  A(84,89,86)           112.4978                                         !
 ! A199  A(84,89,92)           107.088                                          !
 ! A200  A(84,89,106)          108.9392                                         !
 ! A201  A(86,89,92)           108.0808                                         !
 ! A202  A(86,89,106)          112.609                                          !
 ! A203  A(92,89,106)          107.3462                                         !
 ! A204  A(80,93,90)           106.4486                                         !
 ! A205  A(80,93,103)          114.9209                                         !
 ! A206  A(80,93,105)          109.1458                                         !
 ! A207  A(90,93,103)          110.0131                                         !
 ! A208  A(90,93,105)          106.7802                                         !
 ! A209  A(103,93,105)         109.2056                                         !
 ! A210  A(82,96,94)           107.8276                                         !
 ! A211  A(82,96,99)           113.6896                                         !
 ! A212  A(82,96,110)          112.7406                                         !
 ! A213  A(94,96,99)           107.1602                                         !
 ! A214  A(94,96,110)          106.6969                                         !
 ! A215  A(99,96,110)          108.3501                                         !
 ! A216  A(86,98,97)           113.2869                                         !
 ! A217  A(86,98,100)          108.1415                                         !
 ! A218  A(86,98,113)          111.8371                                         !
 ! A219  A(97,98,100)          107.0111                                         !
 ! A220  A(97,98,113)          109.1897                                         !
 ! A221  A(100,98,113)         107.0676                                         !
 ! A222  A(81,101,102)         114.6193                                         !
 ! A223  A(81,101,112)         124.4817                                         !
 ! A224  A(102,101,112)        120.7209                                         !
 ! A225  A(78,102,101)         115.9305                                         !
 ! A226  A(78,102,111)         122.0683                                         !
 ! A227  A(101,102,111)        121.9824                                         !
 ! A228  A(91,103,93)          111.6867                                         !
 ! A229  A(91,103,107)         108.6553                                         !
 ! A230  A(91,103,109)         107.5778                                         !
 ! A231  A(93,103,107)         112.1302                                         !
 ! A232  A(93,103,109)         109.0056                                         !
 ! A233  A(107,103,109)        107.6026                                         !
 ! A234  A(87,108,111)         111.4833                                         !
 ! A235  A(87,108,115)         104.7255                                         !
 ! A236  A(87,108,116)         114.1085                                         !
 ! A237  A(111,108,115)        107.3554                                         !
 ! A238  A(111,108,116)        111.3232                                         !
 ! A239  A(115,108,116)        107.3131                                         !
 ! A240  A(102,111,108)        115.8318                                         !
 ! A241  A(102,111,117)        120.0348                                         !
 ! A242  A(108,111,117)        124.1193                                         !
 ! A243  A(101,112,114)        120.2985                                         !
 ! A244  A(101,112,118)        118.4791                                         !
 ! A245  A(114,112,118)        121.2181                                         !
 ! A246  A(111,117,118)        118.9489                                         !
 ! A247  A(111,117,119)        120.0788                                         !
 ! A248  A(118,117,119)        120.9715                                         !
 ! A249  A(112,118,117)        119.8138                                         !
 ! A250  A(112,118,120)        120.1438                                         !
 ! A251  A(117,118,120)        120.0425                                         !
 ! A252  A(8,121,68)           173.3429                                         !
 ! A253  A(68,121,128)         154.6181                                         !
 ! A254  L(6,20,44,8,-1)       170.6083                                         !
 ! A255  L(8,20,37,6,-1)       177.3033                                         !
 ! A256  L(20,37,63,3,-1)      174.8896                                         !
 ! A257  L(68,78,95,69,-1)     173.0041                                         !
 ! A258  L(69,78,102,68,-1)    158.3253                                         !
 ! A259  L(78,95,122,5,-1)     177.5789                                         !
 ! A260  L(6,20,44,8,-2)       181.1914                                         !
 ! A261  L(8,20,37,6,-2)       173.6579                                         !
 ! A262  L(20,37,63,3,-2)      180.7929                                         !
 ! A263  L(68,78,95,69,-2)     169.2059                                         !
 ! A264  L(69,78,102,68,-2)    154.4095                                         !
 ! A265  L(78,95,122,5,-2)     177.515                                          !
 ! D1    D(1,2,10,12)          -61.6499                                         !
 ! D2    D(1,2,10,16)           55.9562                                         !
 ! D3    D(1,2,10,22)          175.9506                                         !
 ! D4    D(3,2,10,12)           57.2701                                         !
 ! D5    D(3,2,10,16)          174.8761                                         !
 ! D6    D(3,2,10,22)          -65.1294                                         !
 ! D7    D(4,2,10,12)         -179.9331                                         !
 ! D8    D(4,2,10,16)          -62.3271                                         !
 ! D9    D(4,2,10,22)           57.6674                                         !
 ! D10   D(20,6,9,14)         -103.1808                                         !
 ! D11   D(20,6,9,66)          -46.8241                                         !
 ! D12   D(9,6,20,8)           -17.6852                                         !
 ! D13   D(9,6,20,29)           75.7473                                         !
 ! D14   D(9,6,20,37)          168.6569                                         !
 ! D15   D(9,6,44,43)          -75.8981                                         !
 ! D16   D(9,6,44,53)           92.6241                                         !
 ! D17   D(121,8,20,6)         -65.1657                                         !
 ! D18   D(121,8,20,29)       -165.6227                                         !
 ! D19   D(121,8,20,44)        113.643                                          !
 ! D20   D(128,8,20,6)          32.935                                          !
 ! D21   D(128,8,20,29)        -67.522                                          !
 ! D22   D(128,8,20,44)       -148.2564                                         !
 ! D23   D(20,8,121,68)       -118.1689                                         !
 ! D24   D(6,9,14,17)          152.2044                                         !
 ! D25   D(66,9,14,17)         -12.461                                          !
 ! D26   D(6,9,66,69)          126.6393                                         !
 ! D27   D(14,9,66,69)         172.2083                                         !
 ! D28   D(2,10,22,23)        -179.6852                                         !
 ! D29   D(2,10,22,35)          58.3683                                         !
 ! D30   D(12,10,22,23)         56.6506                                         !
 ! D31   D(12,10,22,35)        -65.2959                                         !
 ! D32   D(16,10,22,23)        -57.2679                                         !
 ! D33   D(16,10,22,35)       -179.2144                                         !
 ! D34   D(5,13,24,27)          62.7035                                         !
 ! D35   D(5,13,24,29)         -54.3277                                         !
 ! D36   D(5,13,24,38)        -179.7981                                         !
 ! D37   D(11,13,24,27)        -56.9949                                         !
 ! D38   D(11,13,24,29)       -174.0261                                         !
 ! D39   D(11,13,24,38)         60.5035                                         !
 ! D40   D(15,13,24,27)       -175.0473                                         !
 ! D41   D(15,13,24,29)         67.9215                                         !
 ! D42   D(15,13,24,38)        -57.5489                                         !
 ! D43   D(9,14,17,7)           18.6692                                         !
 ! D44   D(9,14,17,18)         135.127                                          !
 ! D45   D(9,14,17,28)        -103.8897                                         !
 ! D46   D(7,17,28,29)         -62.7367                                         !
 ! D47   D(7,17,28,31)          61.7006                                         !
 ! D48   D(7,17,28,40)         178.7528                                         !
 ! D49   D(14,17,28,29)         56.9482                                         !
 ! D50   D(14,17,28,31)       -178.6145                                         !
 ! D51   D(14,17,28,40)        -61.5622                                         !
 ! D52   D(18,17,28,29)        178.2254                                         !
 ! D53   D(18,17,28,31)        -57.3373                                         !
 ! D54   D(18,17,28,40)         59.715                                          !
 ! D55   D(6,20,29,24)         -89.4138                                         !
 ! D56   D(6,20,29,28)          49.0893                                         !
 ! D57   D(6,20,29,50)         162.1951                                         !
 ! D58   D(8,20,29,24)          -2.2379                                         !
 ! D59   D(8,20,29,28)         136.2651                                         !
 ! D60   D(8,20,29,50)        -110.629                                          !
 ! D61   D(37,20,29,24)        179.2451                                         !
 ! D62   D(37,20,29,28)        -42.2518                                         !
 ! D63   D(37,20,29,50)         70.854                                          !
 ! D64   D(44,20,29,24)         81.173                                          !
 ! D65   D(44,20,29,28)       -140.324                                          !
 ! D66   D(44,20,29,50)        -27.2181                                         !
 ! D67   D(8,20,44,43)         -60.658                                          !
 ! D68   D(8,20,44,53)         112.1414                                         !
 ! D69   D(29,20,44,43)       -155.6587                                         !
 ! D70   D(29,20,44,53)         17.1407                                         !
 ! D71   D(37,20,44,43)        112.8766                                         !
 ! D72   D(37,20,44,53)        -74.3241                                         !
 ! D73   D(10,22,23,19)         48.045                                          !
 ! D74   D(10,22,23,30)        -69.7576                                         !
 ! D75   D(10,22,23,43)        166.1956                                         !
 ! D76   D(35,22,23,19)        171.1801                                         !
 ! D77   D(35,22,23,30)         53.3775                                         !
 ! D78   D(35,22,23,43)        -70.6693                                         !
 ! D79   D(10,22,35,32)        -67.1821                                         !
 ! D80   D(10,22,35,45)         55.7478                                         !
 ! D81   D(10,22,35,47)        179.1283                                         !
 ! D82   D(23,22,35,32)        171.4293                                         !
 ! D83   D(23,22,35,45)        -65.6408                                         !
 ! D84   D(23,22,35,47)         57.7396                                         !
 ! D85   D(19,23,43,44)         84.5894                                         !
 ! D86   D(19,23,43,54)        -93.0146                                         !
 ! D87   D(22,23,43,44)        -32.1342                                         !
 ! D88   D(22,23,43,54)        150.2618                                         !
 ! D89   D(30,23,43,44)       -156.7375                                         !
 ! D90   D(30,23,43,54)         25.6585                                         !
 ! D91   D(13,24,27,21)        -66.4151                                         !
 ! D92   D(13,24,27,25)         53.309                                          !
 ! D93   D(13,24,27,46)        170.4419                                         !
 ! D94   D(29,24,27,21)         51.3026                                         !
 ! D95   D(29,24,27,25)        171.0267                                         !
 ! D96   D(29,24,27,46)        -71.8404                                         !
 ! D97   D(38,24,27,21)        174.0976                                         !
 ! D98   D(38,24,27,25)        -66.1782                                         !
 ! D99   D(38,24,27,46)         50.9547                                         !
 ! D100  D(13,24,29,20)         75.4501                                         !
 ! D101  D(13,24,29,28)        -65.2601                                         !
 ! D102  D(13,24,29,50)        179.9489                                         !
 ! D103  D(27,24,29,20)        -43.1334                                         !
 ! D104  D(27,24,29,28)        176.1564                                         !
 ! D105  D(27,24,29,50)         61.3654                                         !
 ! D106  D(38,24,29,20)       -161.4077                                         !
 ! D107  D(38,24,29,28)         57.8821                                         !
 ! D108  D(38,24,29,50)        -56.9089                                         !
 ! D109  D(13,24,38,36)        -70.197                                          !
 ! D110  D(13,24,38,41)         48.3203                                         !
 ! D111  D(13,24,38,52)        172.65                                           !
 ! D112  D(27,24,38,36)         49.0627                                         !
 ! D113  D(27,24,38,41)        167.58                                           !
 ! D114  D(27,24,38,52)        -68.0903                                         !
 ! D115  D(29,24,38,36)        167.5826                                         !
 ! D116  D(29,24,38,41)        -73.9002                                         !
 ! D117  D(29,24,38,52)         50.4296                                         !
 ! D118  D(17,28,29,20)        -45.7906                                         !
 ! D119  D(17,28,29,24)         95.9607                                         !
 ! D120  D(17,28,29,50)       -152.1806                                         !
 ! D121  D(31,28,29,20)       -166.3209                                         !
 ! D122  D(31,28,29,24)        -24.5696                                         !
 ! D123  D(31,28,29,50)         87.2891                                         !
 ! D124  D(40,28,29,20)         72.8739                                         !
 ! D125  D(40,28,29,24)       -145.3748                                         !
 ! D126  D(40,28,29,50)        -33.5161                                         !
 ! D127  D(17,28,31,26)        -55.3081                                         !
 ! D128  D(17,28,31,34)         62.6541                                         !
 ! D129  D(17,28,31,48)       -179.1372                                         !
 ! D130  D(29,28,31,26)         63.225                                          !
 ! D131  D(29,28,31,34)       -178.8128                                         !
 ! D132  D(29,28,31,48)        -60.6041                                         !
 ! D133  D(40,28,31,26)       -174.3677                                         !
 ! D134  D(40,28,31,34)        -56.4054                                         !
 ! D135  D(40,28,31,48)         61.8032                                         !
 ! D136  D(17,28,40,39)         62.9156                                         !
 ! D137  D(17,28,40,42)        -55.6118                                         !
 ! D138  D(17,28,40,55)       -173.1555                                         !
 ! D139  D(29,28,40,39)        -52.9081                                         !
 ! D140  D(29,28,40,42)       -171.4356                                         !
 ! D141  D(29,28,40,55)         71.0208                                         !
 ! D142  D(31,28,40,39)       -178.629                                          !
 ! D143  D(31,28,40,42)         62.8436                                         !
 ! D144  D(31,28,40,55)        -54.7001                                         !
 ! D145  D(20,29,50,53)         39.4851                                         !
 ! D146  D(20,29,50,57)        -76.9662                                         !
 ! D147  D(20,29,50,58)        165.113                                          !
 ! D148  D(24,29,50,53)        -82.4715                                         !
 ! D149  D(24,29,50,57)        161.0772                                         !
 ! D150  D(24,29,50,58)         43.1564                                         !
 ! D151  D(28,29,50,53)        160.17                                           !
 ! D152  D(28,29,50,57)         43.7187                                         !
 ! D153  D(28,29,50,58)        -74.2021                                         !
 ! D154  D(22,35,45,33)        -62.9233                                         !
 ! D155  D(22,35,45,49)         59.87                                           !
 ! D156  D(22,35,45,51)        178.5432                                         !
 ! D157  D(32,35,45,33)         58.9373                                         !
 ! D158  D(32,35,45,49)       -178.2694                                         !
 ! D159  D(32,35,45,51)        -59.5961                                         !
 ! D160  D(47,35,45,33)        175.3148                                         !
 ! D161  D(47,35,45,49)        -61.8919                                         !
 ! D162  D(47,35,45,51)         56.7814                                         !
 ! D163  D(23,43,44,20)         -3.8263                                         !
 ! D164  D(23,43,44,53)       -176.7032                                         !
 ! D165  D(54,43,44,20)        173.8679                                         !
 ! D166  D(54,43,44,53)          0.991                                          !
 ! D167  D(23,43,54,56)         -2.7725                                         !
 ! D168  D(23,43,54,60)        176.7279                                         !
 ! D169  D(44,43,54,56)        179.7459                                         !
 ! D170  D(44,43,54,60)         -0.7538                                         !
 ! D171  D(20,44,53,50)          6.4471                                         !
 ! D172  D(20,44,53,59)       -173.1021                                         !
 ! D173  D(43,44,53,50)        178.8404                                         !
 ! D174  D(43,44,53,59)         -0.7088                                         !
 ! D175  D(29,50,53,44)        -33.4742                                         !
 ! D176  D(29,50,53,59)        146.0563                                         !
 ! D177  D(57,50,53,44)         80.9944                                         !
 ! D178  D(57,50,53,59)        -99.4752                                         !
 ! D179  D(58,50,53,44)       -160.5289                                         !
 ! D180  D(58,50,53,59)         19.0016                                         !
 ! D181  D(44,53,59,60)          0.201                                          !
 ! D182  D(44,53,59,61)        179.74                                           !
 ! D183  D(50,53,59,60)       -179.3082                                         !
 ! D184  D(50,53,59,61)          0.2309                                         !
 ! D185  D(43,54,60,59)          0.2567                                         !
 ! D186  D(43,54,60,62)       -179.657                                          !
 ! D187  D(56,54,60,59)        179.7498                                         !
 ! D188  D(56,54,60,62)         -0.1639                                         !
 ! D189  D(53,59,60,54)          0.0121                                         !
 ! D190  D(53,59,60,62)        179.9259                                         !
 ! D191  D(61,59,60,54)       -179.521                                          !
 ! D192  D(61,59,60,62)          0.3928                                         !
 ! D193  D(123,64,70,80)       178.525                                          !
 ! D194  D(123,64,70,126)      -59.5687                                         !
 ! D195  D(123,64,70,127)       56.6681                                         !
 ! D196  D(124,64,70,80)        59.2392                                         !
 ! D197  D(124,64,70,126)     -178.8545                                         !
 ! D198  D(124,64,70,127)      -62.6177                                         !
 ! D199  D(125,64,70,80)       -63.3735                                         !
 ! D200  D(125,64,70,126)       58.5328                                         !
 ! D201  D(125,64,70,127)      174.7696                                         !
 ! D202  D(9,66,69,73)         158.8503                                         !
 ! D203  D(9,66,69,78)        -124.5745                                         !
 ! D204  D(121,68,78,69)       -41.0169                                         !
 ! D205  D(121,68,78,87)      -113.8619                                         !
 ! D206  D(121,68,78,102)      164.5737                                         !
 ! D207  D(78,68,121,8)        -97.9113                                         !
 ! D208  D(78,68,121,128)       27.2587                                         !
 ! D209  D(66,69,73,75)        -90.2933                                         !
 ! D210  D(78,69,73,75)        115.6585                                         !
 ! D211  D(66,69,78,68)        107.3176                                         !
 ! D212  D(66,69,78,87)       -149.5845                                         !
 ! D213  D(66,69,78,95)        -61.8884                                         !
 ! D214  D(73,69,78,68)       -168.173                                          !
 ! D215  D(73,69,78,87)        -65.0751                                         !
 ! D216  D(73,69,78,95)         22.621                                          !
 ! D217  D(66,69,102,101)       35.7326                                         !
 ! D218  D(66,69,102,111)     -164.7285                                         !
 ! D219  D(73,69,102,101)      138.452                                          !
 ! D220  D(73,69,102,111)      -62.0091                                         !
 ! D221  D(64,70,80,81)         59.08                                           !
 ! D222  D(64,70,80,93)        -62.742                                          !
 ! D223  D(126,70,80,81)       -64.9718                                         !
 ! D224  D(126,70,80,93)       173.2063                                         !
 ! D225  D(127,70,80,81)      -177.272                                          !
 ! D226  D(127,70,80,93)        60.9061                                         !
 ! D227  D(65,72,82,85)         54.2577                                         !
 ! D228  D(65,72,82,87)        -60.8882                                         !
 ! D229  D(65,72,82,96)        171.9348                                         !
 ! D230  D(71,72,82,85)        -64.8043                                         !
 ! D231  D(71,72,82,87)       -179.9502                                         !
 ! D232  D(71,72,82,96)         52.8728                                         !
 ! D233  D(74,72,82,85)        175.8803                                         !
 ! D234  D(74,72,82,87)         60.7344                                         !
 ! D235  D(74,72,82,96)        -66.4426                                         !
 ! D236  D(69,73,75,67)         21.1158                                         !
 ! D237  D(69,73,75,76)        137.3367                                         !
 ! D238  D(69,73,75,86)       -102.7221                                         !
 ! D239  D(67,75,86,87)        -59.1316                                         !
 ! D240  D(67,75,86,89)         65.7494                                         !
 ! D241  D(67,75,86,98)       -177.6824                                         !
 ! D242  D(73,75,86,87)         61.3039                                         !
 ! D243  D(73,75,86,89)       -173.8151                                         !
 ! D244  D(73,75,86,98)        -57.2469                                         !
 ! D245  D(76,75,86,87)       -179.0425                                         !
 ! D246  D(76,75,86,89)        -54.1615                                         !
 ! D247  D(76,75,86,98)         62.4067                                         !
 ! D248  D(68,78,87,82)         -3.0764                                         !
 ! D249  D(68,78,87,86)        137.046                                          !
 ! D250  D(68,78,87,108)      -110.9377                                         !
 ! D251  D(69,78,87,82)        -70.5118                                         !
 ! D252  D(69,78,87,86)         69.6107                                         !
 ! D253  D(69,78,87,108)      -178.373                                          !
 ! D254  D(95,78,87,82)       -173.6009                                         !
 ! D255  D(95,78,87,86)        -33.4784                                         !
 ! D256  D(95,78,87,108)        78.5379                                         !
 ! D257  D(102,78,87,82)        84.0609                                         !
 ! D258  D(102,78,87,86)      -135.8166                                         !
 ! D259  D(102,78,87,108)      -23.8003                                         !
 ! D260  D(68,78,102,101)      -63.9281                                         !
 ! D261  D(68,78,102,111)      114.5268                                         !
 ! D262  D(87,78,102,101)     -161.6482                                         !
 ! D263  D(87,78,102,111)       16.8068                                         !
 ! D264  D(95,78,102,101)      109.3375                                         !
 ! D265  D(95,78,102,111)      -72.2076                                         !
 ! D266  D(70,80,81,77)         48.4681                                         !
 ! D267  D(70,80,81,88)        -71.8535                                         !
 ! D268  D(70,80,81,101)       163.4079                                         !
 ! D269  D(93,80,81,77)        172.693                                          !
 ! D270  D(93,80,81,88)         52.3715                                         !
 ! D271  D(93,80,81,101)       -72.3672                                         !
 ! D272  D(70,80,93,90)       -168.8496                                         !
 ! D273  D(70,80,93,103)       -46.8002                                         !
 ! D274  D(70,80,93,105)        76.2435                                         !
 ! D275  D(81,80,93,90)         68.5157                                         !
 ! D276  D(81,80,93,103)      -169.4349                                         !
 ! D277  D(81,80,93,105)       -46.3911                                         !
 ! D278  D(77,81,101,102)       75.6367                                         !
 ! D279  D(77,81,101,112)      -99.5261                                         !
 ! D280  D(80,81,101,102)      -38.9254                                         !
 ! D281  D(80,81,101,112)      145.9118                                         !
 ! D282  D(88,81,101,102)     -164.5015                                         !
 ! D283  D(88,81,101,112)       20.3357                                         !
 ! D284  D(72,82,85,79)        -61.9345                                         !
 ! D285  D(72,82,85,83)         57.3459                                         !
 ! D286  D(72,82,85,104)       174.4686                                         !
 ! D287  D(87,82,85,79)         53.8536                                         !
 ! D288  D(87,82,85,83)        173.134                                          !
 ! D289  D(87,82,85,104)       -69.7432                                         !
 ! D290  D(96,82,85,79)        178.5563                                         !
 ! D291  D(96,82,85,83)        -62.1633                                         !
 ! D292  D(96,82,85,104)        54.9594                                         !
 ! D293  D(72,82,87,78)         73.1899                                         !
 ! D294  D(72,82,87,86)        -70.5116                                         !
 ! D295  D(72,82,87,108)       178.7548                                         !
 ! D296  D(85,82,87,78)        -43.5983                                         !
 ! D297  D(85,82,87,86)        172.7001                                         !
 ! D298  D(85,82,87,108)        61.9665                                         !
 ! D299  D(96,82,87,78)       -162.9364                                         !
 ! D300  D(96,82,87,86)         53.362                                          !
 ! D301  D(96,82,87,108)       -57.3715                                         !
 ! D302  D(72,82,96,94)        -72.611                                          !
 ! D303  D(72,82,96,99)         46.0448                                         !
 ! D304  D(72,82,96,110)       169.8706                                         !
 ! D305  D(85,82,96,94)         46.0842                                         !
 ! D306  D(85,82,96,99)        164.74                                           !
 ! D307  D(85,82,96,110)       -71.4342                                         !
 ! D308  D(87,82,96,94)        164.9655                                         !
 ! D309  D(87,82,96,99)        -76.3786                                         !
 ! D310  D(87,82,96,110)        47.4471                                         !
 ! D311  D(75,86,87,78)        -42.5144                                         !
 ! D312  D(75,86,87,82)        100.0359                                         !
 ! D313  D(75,86,87,108)      -150.9626                                         !
 ! D314  D(89,86,87,78)       -163.0909                                         !
 ! D315  D(89,86,87,82)        -20.5407                                         !
 ! D316  D(89,86,87,108)        88.4608                                         !
 ! D317  D(98,86,87,78)         75.5623                                         !
 ! D318  D(98,86,87,82)       -141.8875                                         !
 ! D319  D(98,86,87,108)       -32.886                                          !
 ! D320  D(75,86,89,84)        -56.1082                                         !
 ! D321  D(75,86,89,92)         61.912                                          !
 ! D322  D(75,86,89,106)      -179.683                                          !
 ! D323  D(87,86,89,84)         63.1918                                         !
 ! D324  D(87,86,89,92)       -178.788                                          !
 ! D325  D(87,86,89,106)       -60.3829                                         !
 ! D326  D(98,86,89,84)       -173.9825                                         !
 ! D327  D(98,86,89,92)        -55.9623                                         !
 ! D328  D(98,86,89,106)        62.4428                                         !
 ! D329  D(75,86,98,97)         65.7899                                         !
 ! D330  D(75,86,98,100)       -52.6466                                         !
 ! D331  D(75,86,98,113)      -170.2938                                         !
 ! D332  D(87,86,98,97)        -50.4889                                         !
 ! D333  D(87,86,98,100)      -168.9254                                         !
 ! D334  D(87,86,98,113)        73.4274                                         !
 ! D335  D(89,86,98,97)       -176.694                                          !
 ! D336  D(89,86,98,100)        64.8695                                         !
 ! D337  D(89,86,98,113)       -52.7777                                         !
 ! D338  D(78,87,108,111)       33.7875                                         !
 ! D339  D(78,87,108,115)      -81.9911                                         !
 ! D340  D(78,87,108,116)      160.9622                                         !
 ! D341  D(82,87,108,111)      -86.6101                                         !
 ! D342  D(82,87,108,115)      157.6113                                         !
 ! D343  D(82,87,108,116)       40.5646                                         !
 ! D344  D(86,87,108,111)      158.0054                                         !
 ! D345  D(86,87,108,115)       42.2268                                         !
 ! D346  D(86,87,108,116)      -74.8199                                         !
 ! D347  D(80,93,103,91)       -49.8488                                         !
 ! D348  D(80,93,103,107)       72.3828                                         !
 ! D349  D(80,93,103,109)     -168.5812                                         !
 ! D350  D(90,93,103,91)        70.252                                          !
 ! D351  D(90,93,103,107)     -167.5164                                         !
 ! D352  D(90,93,103,109)      -48.4804                                         !
 ! D353  D(105,93,103,91)     -172.8605                                         !
 ! D354  D(105,93,103,107)     -50.6289                                         !
 ! D355  D(105,93,103,109)      68.4071                                         !
 ! D356  D(81,101,102,78)        4.5689                                         !
 ! D357  D(81,101,102,111)    -173.8875                                         !
 ! D358  D(112,101,102,78)     179.9311                                         !
 ! D359  D(112,101,102,111)      1.4747                                         !
 ! D360  D(81,101,112,114)      -5.8493                                         !
 ! D361  D(81,101,112,118)     173.4008                                         !
 ! D362  D(102,101,112,114)    179.2668                                         !
 ! D363  D(102,101,112,118)     -1.4831                                         !
 ! D364  D(78,102,111,108)       2.6131                                         !
 ! D365  D(78,102,111,117)    -178.7007                                         !
 ! D366  D(101,102,111,108)   -179.0251                                         !
 ! D367  D(101,102,111,117)     -0.339                                          !
 ! D368  D(87,108,111,102)     -26.299                                          !
 ! D369  D(87,108,111,117)     155.0749                                         !
 ! D370  D(115,108,111,102)     87.8555                                         !
 ! D371  D(115,108,111,117)    -90.7706                                         !
 ! D372  D(116,108,111,102)   -154.9704                                         !
 ! D373  D(116,108,111,117)     26.4035                                         !
 ! D374  D(102,111,117,118)     -0.7375                                         !
 ! D375  D(102,111,117,119)    179.5957                                         !
 ! D376  D(108,111,117,118)    177.834                                          !
 ! D377  D(108,111,117,119)     -1.8327                                         !
 ! D378  D(101,112,118,117)      0.4046                                         !
 ! D379  D(101,112,118,120)   -179.5682                                         !
 ! D380  D(114,112,118,117)    179.6475                                         !
 ! D381  D(114,112,118,120)     -0.3253                                         !
 ! D382  D(111,117,118,112)      0.6763                                         !
 ! D383  D(111,117,118,120)   -179.3509                                         !
 ! D384  D(119,117,118,112)   -179.66                                           !
 ! D385  D(119,117,118,120)      0.3128                                         !
 --------------------------------------------------------------------------------
 Stoichiometry    C40H74N4O6P2Ru2(3)
 Framework group  C1[X(C40H74N4O6P2Ru2)]
 Deg. of freedom   378
 Full point group                 C1      NOp   1
 Largest Abelian subgroup         C1      NOp   1
 Largest concise Abelian subgroup C1      NOp   1
                         Standard orientation:                         
 ---------------------------------------------------------------------
 Center     Atomic      Atomic             Coordinates (Angstroms)
 Number     Number       Type             X           Y           Z
 ---------------------------------------------------------------------
      1          1           0       -0.032708    1.604177    4.137174
      2          6           0        0.939032    1.192943    3.830385
      3          1           0        1.557565    1.106767    4.737348
      4          1           0        1.409312    1.906774    3.134564
      5          1           0        1.466672    1.598483   -2.339176
      6          8           0        1.967145    2.119663    1.025466
      7          1           0        3.263696    3.589763   -1.405321
      8          8           0        1.137210   -0.215118   -0.120883
      9          1           0        0.670132    2.313043   -0.017131
     10          6           0        0.705137   -0.132615    3.141363
     11          1           0        1.650718    1.135624   -4.047357
     12          1           0        0.231838   -0.857387    3.830738
     13          6           0        2.203388    1.429827   -3.139294
     14          1           0        3.782325    3.292630    0.253628
     15          1           0        2.692524    2.391378   -3.355407
     16          1           0        0.012086   -0.019858    2.296215
     17          6           0        4.151429    3.477386   -0.765385
     18          1           0        4.707690    4.429224   -0.785393
     19          1           0        0.744423   -1.814537    1.291011
     20         44           0        2.843445    0.418585    0.844641
     21          1           0        1.841305   -0.997927   -1.752213
     22          7           0        1.945413   -0.738079    2.597155
     23          6           0        1.608936   -2.017740    1.941995
     24          6           0        3.219169    0.334526   -2.808322
     25          1           0        1.888859   -1.179279   -3.541470
     26          1           0        4.745932    2.900457   -3.371962
     27          6           0        2.497513   -1.009075   -2.637145
     28          6           0        5.069923    2.356828   -1.266356
     29         15           0        4.039374    0.756141   -1.140193
     30          1           0        1.314152   -2.784819    2.676870
     31          6           0        5.565790    2.704219   -2.669780
     32          1           0        3.294195    0.024625    4.001803
     33          1           0        1.720244   -1.329903    5.416481
     34          1           0        6.159479    3.630554   -2.597463
     35          6           0        2.964898   -0.961229    3.653935
     36          1           0        3.658649   -0.290090   -4.806196
     37          6           0        4.239933    0.997653    1.886907
     38          6           0        4.209260    0.165118   -3.966459
     39          1           0        6.079362    1.980174    0.665167
     40          6           0        6.306869    2.250949   -0.370994
     41          1           0        4.632285    1.106368   -4.329610
     42          1           0        6.794481    3.239214   -0.344678
     43          6           0        2.745004   -2.507917    1.093364
     44          7           0        3.494273   -1.545320    0.525917
     45          6           0        2.536352   -1.799305    4.848800
     46          1           0        3.210375   -1.845411   -2.566234
     47          1           0        3.835164   -1.423268    3.164405
     48          1           0        6.220028    1.927610   -3.090936
     49          1           0        2.221043   -2.816461    4.572773
     50          6           0        5.236080   -0.668378   -0.890738
     51          1           0        3.395345   -1.899871    5.528981
     52          1           0        5.036469   -0.520113   -3.724369
     53          6           0        4.504745   -1.844211   -0.312284
     54          6           0        3.008698   -3.850680    0.843605
     55          1           0        7.043180    1.537986   -0.773578
     56          1           0        2.395880   -4.620622    1.313592
     57          1           0        5.964184   -0.309877   -0.145382
[...]
  Beta virt. eigenvalues --    5.26121   5.26575   5.26819   5.26927   5.27028
  Beta virt. eigenvalues --    5.27438   5.27759   5.28103   5.28308   5.28727
  Beta virt. eigenvalues --    5.29091   5.29368   5.29501   5.29687   5.29894
  Beta virt. eigenvalues --    5.30476   5.30878   5.31117   5.31454   5.31530
  Beta virt. eigenvalues --    5.31889   5.32150   5.32211   5.32883   5.33110
  Beta virt. eigenvalues --    5.33592   5.34260   5.34371   5.34571   5.34907
  Beta virt. eigenvalues --    5.35207   5.35469   5.35510   5.35857   5.36267
  Beta virt. eigenvalues --    5.36562   5.36621   5.36990   5.37306   5.37467
  Beta virt. eigenvalues --    5.37612   5.37767   5.37974   5.38297   5.38708
  Beta virt. eigenvalues --    5.38800   5.39056   5.39223   5.39484   5.39759
  Beta virt. eigenvalues --    5.39889   5.40021   5.40373   5.40617   5.40953
  Beta virt. eigenvalues --    5.41310   5.41614   5.41860   5.42052   5.42251
  Beta virt. eigenvalues --    5.42450   5.42699   5.43338   5.43424   5.43902
  Beta virt. eigenvalues --    5.44122   5.44554   5.44915   5.45132   5.45313
  Beta virt. eigenvalues --    5.45464   5.45938   5.46279   5.46575   5.47259
  Beta virt. eigenvalues --    5.47457   5.47826   5.47941   5.48163   5.48695
  Beta virt. eigenvalues --    5.48881   5.48985   5.49250   5.49383   5.49853
  Beta virt. eigenvalues --    5.50170   5.50355   5.50426   5.50804   5.50989
  Beta virt. eigenvalues --    5.51430   5.51656   5.52123   5.52357   5.52579
  Beta virt. eigenvalues --    5.53019   5.53239   5.53499   5.54008   5.54207
  Beta virt. eigenvalues --    5.54471   5.54915   5.55253   5.55832   5.56015
  Beta virt. eigenvalues --    5.56316   5.56624   5.56864   5.56911   5.57590
  Beta virt. eigenvalues --    5.57934   5.58185   5.58493   5.58992   5.59475
  Beta virt. eigenvalues --    5.59595   5.59679   5.60055   5.60198   5.60814
  Beta virt. eigenvalues --    5.61199   5.61943   5.62328   5.62455   5.63175
  Beta virt. eigenvalues --    5.63306   5.64143   5.64546   5.66897   5.67519
  Beta virt. eigenvalues --    5.67838   5.69103   5.69714   5.70523   5.70797
  Beta virt. eigenvalues --    5.72911   5.74428   5.75514   5.76042   5.77249
  Beta virt. eigenvalues --    5.78391   5.79720   5.82142   5.83922   5.86337
  Beta virt. eigenvalues --    5.88180   5.88627   5.89827   5.90419   5.90803
  Beta virt. eigenvalues --    5.94450   5.94890   5.97986   5.99812   6.00527
  Beta virt. eigenvalues --    6.00853   6.01308   6.01571   6.01908   6.02129
  Beta virt. eigenvalues --    6.02818   6.03519   6.03742   6.04070   6.04489
  Beta virt. eigenvalues --    6.04594   6.04663   6.05628   6.06290   6.06608
  Beta virt. eigenvalues --    6.07088   6.07509   6.08306   6.09044   6.09192
  Beta virt. eigenvalues --    6.09234   6.09749   6.09967   6.10080   6.10538
  Beta virt. eigenvalues --    6.11392   6.11740   6.12918   6.13171   6.14254
  Beta virt. eigenvalues --    6.14771   6.15284   6.15568   6.15924   6.17274
  Beta virt. eigenvalues --    6.17553   6.17797   6.18397   6.19252   6.19886
  Beta virt. eigenvalues --    6.20232   6.21253   6.21652   6.22083   6.23408
  Beta virt. eigenvalues --    6.25490   6.26026   6.26643   6.28924   6.29305
  Beta virt. eigenvalues --    6.29631   6.31593   6.32484   6.33258   6.34085
  Beta virt. eigenvalues --    6.34743   6.35150   6.38185   6.40444   6.41005
  Beta virt. eigenvalues --    6.42456   6.44728   6.44777   6.51557   6.53412
  Beta virt. eigenvalues --    6.56796   6.57525   6.58709   6.59932   6.62341
  Beta virt. eigenvalues --    6.62690   6.63962   6.67616   6.71961   6.72795
  Beta virt. eigenvalues --    6.73844   6.77144   6.77676   6.78749   6.80170
  Beta virt. eigenvalues --    6.82518   6.83592   6.84026   6.85352   6.86009
  Beta virt. eigenvalues --    6.88380   6.91953   6.93034   6.94139   6.95722
  Beta virt. eigenvalues --    6.95955   6.98441   6.99252   7.07753   7.08463
  Beta virt. eigenvalues --    7.16573   7.22360   7.31723   7.39655   7.42673
  Beta virt. eigenvalues --    7.54453   7.70125   7.95397   8.61196   8.84292
  Beta virt. eigenvalues --    9.76287   9.80545   9.98798  10.04159  10.15635
  Beta virt. eigenvalues --   10.20765  10.77432  10.80204  11.04527  12.24542
  Beta virt. eigenvalues --   12.32165  12.40945  12.43045  12.77302  12.80541
  Beta virt. eigenvalues --   12.82910  12.93325  13.02305  13.19422  13.23982
  Beta virt. eigenvalues --   13.25554  13.27941  13.33259  13.40840  13.43969
  Beta virt. eigenvalues --   13.50741  13.54231  13.57423  13.63977  13.73536
  Beta virt. eigenvalues --   13.74525  13.75201  13.78108  13.79704  13.81044
  Beta virt. eigenvalues --   13.81485  13.84600  13.85793  13.87823  13.91988
  Beta virt. eigenvalues --   13.94585  13.99691  14.06453  14.10787  14.21210
  Beta virt. eigenvalues --   14.30785  15.07844  15.12913  35.46309  35.56186
  Beta virt. eigenvalues --   35.62661  35.65152  35.70390  35.76282  46.28260
  Beta virt. eigenvalues --   46.33492
          Condensed to atoms (all electrons):
          Atomic-Atomic Spin Densities.
 Mulliken charges and spin densities:
               1          2
     1  H    0.127799  -0.000133
     2  C   -0.374361   0.010342
     3  H    0.115993   0.000264
     4  H    0.145799  -0.002680
     5  H    0.132285  -0.000261
     6  O   -0.682956   0.635627
     7  H    0.125561   0.000105
     8  O   -0.778729  -0.003840
     9  H    0.299192  -0.003914
    10  C   -0.108746  -0.002950
    11  H    0.108757   0.000089
    12  H    0.122550   0.005065
    13  C   -0.372049   0.000646
    14  H    0.137695  -0.000438
    15  H    0.124519   0.000180
    16  H    0.123691   0.002432
    17  C   -0.344463   0.002000
    18  H    0.111621   0.000352
    19  H    0.149516   0.000049
    20  Ru   0.993380   0.360553
    21  H    0.163695  -0.000825
    22  N   -0.215894   0.026222
    23  C   -0.112106   0.000394
    24  C    0.005929   0.001164
    25  H    0.109663   0.000023
    26  H    0.122771  -0.000102
    27  C   -0.396315   0.000410
    28  C    0.001817   0.007277
    29  P    0.111382   0.012686
    30  H    0.129970  -0.000417
    31  C   -0.334830   0.001856
    32  H    0.131039   0.000246
    33  H    0.114690  -0.000040
    34  H    0.111390   0.000773
    35  C   -0.124640  -0.000544
    36  H    0.111664   0.000121
    37  C   -0.175283  -0.027289
    38  C   -0.333533   0.000053
    39  H    0.143741   0.000008
    40  C   -0.364492  -0.000029
    41  H    0.120266  -0.000029
    42  H    0.110220   0.000185
    43  C    0.140032  -0.002939
    44  N   -0.152613  -0.004242
    45  C   -0.327006   0.000461
    46  H    0.115416   0.000042
    47  H    0.149328   0.000432
    48  H    0.114624  -0.000105
    49  H    0.113115  -0.000027
    50  C   -0.227343   0.000578
    51  H    0.119523   0.000095
    52  H    0.118543  -0.000033
    53  C    0.042761  -0.001402
    54  C   -0.166675  -0.000497
    55  H    0.115457  -0.000020
    56  H    0.166583   0.000077
    57  H    0.169745   0.000094
    58  H    0.150467  -0.000009
    59  C   -0.128353  -0.000899
    60  C   -0.124507   0.000635
    61  H    0.167358  -0.000034
    62  H    0.165415  -0.000004
    63  O   -0.271074  -0.010773
    64  C   -0.337858   0.001335
    65  H    0.095573  -0.002129
    66  O   -0.586857   0.007287
    67  H    0.111698  -0.000809
    68  O   -0.840773   0.000122
    69  H    0.318721   0.004948
    70  C   -0.121397   0.000573
    71  H    0.113585   0.000296
    72  C   -0.357040   0.000596
    73  H    0.148360  -0.006332
    74  H    0.128479   0.000169
    75  C   -0.365437   0.001036
    76  H    0.110257   0.001683
    77  H    0.178283  -0.000079
    78  Ru   0.676807   0.987003
    79  H    0.158100   0.000142
    80  N   -0.218213  -0.005797
    81  C   -0.125613   0.003506
    82  C    0.035805  -0.004171
    83  H    0.104266  -0.000040
    84  H    0.118252   0.000040
    85  C   -0.415702   0.000174
    86  C    0.020752  -0.001050
    87  P    0.033645  -0.026269
    88  H    0.121787  -0.000742
    89  C   -0.338139  -0.000481
    90  H    0.141460  -0.000169
    91  H    0.124008  -0.002227
    92  H    0.106649  -0.000034
    93  C   -0.123201  -0.000545
    94  H    0.106222  -0.000382
    95  C   -0.246066  -0.029198
    96  C   -0.341337  -0.000315
    97  H    0.136909   0.000758
    98  C   -0.360359   0.000059
    99  H    0.116804   0.000029
   100  H    0.106059  -0.000055
   101  C    0.108313  -0.003586
   102  N   -0.176859   0.062661
   103  C   -0.349263   0.001677
   104  H    0.118811  -0.000026
   105  H    0.116091  -0.000314
   106  H    0.111586   0.000078
   107  H    0.115964   0.000092
   108  C   -0.232744   0.000336
   109  H    0.122737   0.000032
   110  H    0.115597   0.000001
   111  C    0.046580  -0.002276
   112  C   -0.174417   0.006617
   113  H    0.110812  -0.000015
   114  H    0.159214   0.001736
   115  H    0.160940  -0.000211
   116  H    0.145367  -0.001015
   117  C   -0.146749   0.005638
   118  C   -0.137367  -0.005492
   119  H    0.161094   0.001496
   120  H    0.160458   0.000133
   121  H    0.323155  -0.003657
   122  O   -0.345566   0.004204
   123  H    0.123440  -0.000035
   124  H    0.113671  -0.000002
   125  H    0.111582   0.000297
   126  H    0.131667  -0.000056
   127  H    0.131794  -0.000540
   128  H    0.300610  -0.003772
 Sum of Mulliken charges =  -0.00000   2.00000
 Mulliken charges and spin densities with hydrogens summed into heavy atoms:
               1          2
     2  C    0.015230   0.007794
     6  O   -0.682956   0.635627
     8  O   -0.478120  -0.007612
    10  C    0.137494   0.004546
    13  C   -0.006488   0.000655
    17  C    0.030414   0.002020
    20  Ru   0.993380   0.360553
    22  N   -0.215894   0.026222
    23  C    0.167380   0.000026
    24  C    0.005929   0.001164
    27  C   -0.007540  -0.000350
    28  C    0.001817   0.007277
    29  P    0.111382   0.012686
    31  C    0.013956   0.002422
    35  C    0.155727   0.000134
    37  C   -0.175283  -0.027289
    38  C    0.016940   0.000111
    40  C    0.004926   0.000144
    43  C    0.140032  -0.002939
    44  N   -0.152613  -0.004242
    45  C    0.020322   0.000489
    50  C    0.092869   0.000663
    53  C    0.042761  -0.001402
    54  C   -0.000092  -0.000420
    59  C    0.039004  -0.000933
    60  C    0.040907   0.000630
    63  O   -0.271074  -0.010773
    64  C    0.010835   0.001596
    66  O    0.031056   0.008321
    68  O   -0.517619  -0.003535
    70  C    0.142064  -0.000023
    72  C   -0.019403  -0.001068
    75  C    0.004878  -0.004422
    78  Ru   0.676807   0.987003
    80  N   -0.218213  -0.005797
    81  C    0.174458   0.002685
    82  C    0.035805  -0.004171
    85  C   -0.034524   0.000250
    86  C    0.020752  -0.001050
    87  P    0.033645  -0.026269
    89  C   -0.001653  -0.000397
    93  C    0.134350  -0.001027
    95  C   -0.246066  -0.029198
    96  C   -0.002715  -0.000667
    98  C   -0.006579   0.000748
   101  C    0.108313  -0.003586
   102  N   -0.176859   0.062661
   103  C    0.013446  -0.000426
   108  C    0.073563  -0.000890
   111  C    0.046580  -0.002276
   112  C   -0.015203   0.008354
   117  C    0.014345   0.007134
   118  C    0.023091  -0.005359
   122  O   -0.345566   0.004204
 Electronic spatial extent (au):  <R**2>=          37808.3124
 Charge=              0.0000 electrons
 Dipole moment (field-independent basis, Debye):
    X=              4.0479    Y=            -15.6899    Z=              2.1687  Tot=             16.3481
 Quadrupole moment (field-independent basis, Debye-Ang):
   XX=           -284.7815   YY=           -341.7400   ZZ=           -376.0326
   XY=            -19.4262   XZ=            -49.0970   YZ=             -7.2118
 Traceless Quadrupole moment (field-independent basis, Debye-Ang):
   XX=             49.4032   YY=             -7.5553   ZZ=            -41.8479
   XY=            -19.4262   XZ=            -49.0970   YZ=             -7.2118
 Octapole moment (field-independent basis, Debye-Ang**2):
  XXX=              5.5523  YYY=           -211.7772  ZZZ=             88.7412  XYY=            -24.5436
  XXY=           -127.9111  XXZ=              0.6897  XZZ=             97.9612  YZZ=            -57.6609
  YYZ=             -3.9702  XYZ=            -50.3491
 Hexadecapole moment (field-independent basis, Debye-Ang**3):
 XXXX=         -27679.4809 YYYY=         -10389.9415 ZZZZ=          -9817.1154 XXXY=             43.0597
 XXXZ=          -1391.0922 YYYX=            -31.3532 YYYZ=           -112.6795 ZZZX=             62.3422
 ZZZY=             17.1132 XXYY=          -6149.9732 XXZZ=          -6937.2044 YYZZ=          -3456.5929
 XXYZ=           -220.0707 YYXZ=            -86.4999 ZZXY=             31.3374
 N-N= 1.058742762586D+04 E-N=-2.841149941413D+04  KE= 2.970151995873D+03
 1\1\GINC-NODE177\SP\UPBE1PBE\GenECP\C40H74N4O6P2Ru2(3)\JS1212\14-Mar-2
 020\0\\# genecp pbe1pbe EmpiricalDispersion=GD3BJ scrf=(SMD,solvent=wa
 ter) geom=allcheck\\Title Card Required\\0,3\H,0,-0.0829430788,-3.7119
 200872,-2.3645937809\C,0,-1.0714019335,-3.4238173566,-1.9805898425\H,0
 ,-1.7431147061,-4.2831612036,-2.1319834927\H,0,-1.4338800197,-2.568501
 6477,-2.5738265204\H,0,-1.2262347471,2.7254565651,-1.1627811506\O,0,-1
 .8549851589,-0.4245746277,-2.3976474366\H,0,-2.8740037374,2.335808004,
 -3.4430456823\O,0,-1.1896941486,0.17408182,0.18171505\H,0,-0.491386682
 5,0.5399602469,-2.2675758205\C,0,-0.9275198667,-3.0295912427,-0.527852
 0154\H,0,-1.3613376256,4.3168164692,-0.3783607988\H,0,-0.5627307164,-3
 .8809891608,0.0776188272\C,0,-1.931592184,3.5270220687,-0.8956730257\H
 ,0,-3.5067720527,0.692403795,-3.5336156866\H,0,-2.3150955254,3.9638135
 763,-1.8298448618\H,0,-0.1825319422,-2.23075197,-0.4088715059\C,0,-3.8
 014622518,1.7516057324,-3.5365610281\H,0,-4.2631403741,1.9995802949,-4
 .5067070842\H,0,-1.0266145993,-1.5511023936,1.4867092753\Ru,0,-2.87756
 51067,-0.5219452899,-0.7731122959\H,0,-1.8761983539,1.6642161976,1.219
 9771084\N,0,-2.188575475,-2.5286215971,0.0719819979\C,0,-1.9401912515,
 -2.1657604108,1.4814570762\C,0,-3.0628953783,3.0593298055,0.0221811994
 \H,0,-1.8445919856,3.3808103409,1.757469144\H,0,-4.3071559015,4.228029
 2121,-2.4915120712\C,0,-2.4820480809,2.57412081,1.3572993126\C,0,-4.79
 37843334,2.0852115779,-2.4166239705\P,0,-3.9278267647,1.5709410864,-0.
 7961947883\H,0,-1.7593075182,-3.0572199068,2.1042961748\C,0,-5.1784323
 447,3.5615002997,-2.5103263937\H,0,-3.5324707189,-3.6539894044,-1.0688
 332462\H,0,-2.1721967174,-5.4180545799,0.0935389566\H,0,-5.6846894013,
 3.7168536259,-3.4774676695\C,0,-3.2798798814,-3.532811757,-0.009177317
 3\H,0,-3.4516878331,4.9201509468,1.0024739473\C,0,-4.2668284467,-1.326
 0177048,-1.6648689342\C,0,-4.0009708404,4.2288938888,0.3421728364\H,0,
 -5.936612436,0.1947805612,-2.5253840961\C,0,-6.0814760283,1.2776347883
 ,-2.5971444635\H,0,-4.3127850285,4.800664835,-0.5368214445\H,0,-6.4739
 482866,1.4826194902,-3.6066358842\C,0,-3.0703900545,-1.3518311153,2.03
 93732907\N,0,-3.6935161425,-0.552735062,1.154414509\C,0,-2.9974539693,
 -4.897591635,0.600196463\H,0,-3.2737303846,2.3902369943,2.1003228534\H
 ,0,-4.1624707142,-3.0834059065,0.4699362965\H,0,-5.8797620595,3.866270
 859,-1.7205330343\H,0,-2.7655912283,-4.8518410637,1.6746092838\C,0,-5.
 2658003455,1.1306934263,0.4446101616\H,0,-3.8973853621,-5.5208558977,0
 .4893178512\H,0,-4.9011910141,3.9157998234,0.8935341867\C,0,-4.6812989
 341,0.2798843448,1.533887775\C,0,-3.4463512751,-1.3547527021,3.3786164
 06\H,0,-6.8593561833,1.5827397557,-1.879956473\H,0,-2.9353755929,-2.01
 06328827,4.0842843774\H,0,-5.9956164403,0.5252667859,-0.1166736068\H,0
 ,-5.7967020053,2.0005709798,0.8555772629\C,0,-5.0943395405,0.322226813
 ,2.8632079386\C,0,-4.4686990284,-0.5047594185,3.7926677589\H,0,-5.8921
 665797,1.0026944461,3.1622000652\H,0,-4.7775045806,-0.4850877775,4.839
 3215249\O,0,-5.0786374417,-1.909722485,-2.258505084\C,0,-0.1473534539,
 0.9281367054,4.2107114835\H,0,1.2900469986,-1.2724022713,-2.0816062495
 \O,0,0.1665939944,1.2735828747,-2.0840123424\H,0,2.4325779561,1.446736
 926,-3.1726250055\O,0,1.2688720217,-0.9666333848,0.622644665\H,0,0.896
 3209601,0.8599155773,-1.5941606203\C,0,0.5217073282,1.0414285265,2.848
 4035607\H,0,1.7574153798,-2.5664919516,-3.2127968468\C,0,2.0874802835,
 -1.6209912504,-2.7511940786\H,0,3.0546718641,2.5424747294,-1.935724055
 8\H,0,2.2050163777,-0.885487678,-3.5606469937\C,0,3.3351433954,1.97354
 41822,-2.8319855009\H,0,3.6308488168,2.6870867937,-3.6197961772\H,0,1.
 5428252993,-1.2450489767,2.7337281945\Ru,0,2.6880168201,0.5664194747,0
 .5894639446\H,0,2.3712095537,-2.3756074359,-0.1081679306\N,0,1.9746466
 571,0.7704238194,2.7948609325\C,0,2.2563305193,-0.5983562449,3.2727684
 008\C,0,3.382586092,-1.8597429993,-1.9760710864\H,0,2.6760607927,-3.74
 58035143,-1.2296060638\H,0,4.1176408003,-0.1321568341,-4.3777517096\C,
 0,3.0987134068,-2.8159621672,-0.8093263085\C,0,4.5069978929,1.02709595
 01,-2.5537374782\P,0,3.9037251174,-0.1957750843,-1.2004179037\H,0,2.11
 82710638,-0.6847240746,4.3648547688\C,0,4.9416080983,0.3871481594,-3.8
 709803341\H,0,3.8216076969,1.5625649685,3.3260110175\H,0,2.3636381028,
 3.4508829265,2.3340048699\H,0,5.2823212178,1.1904834046,-4.5458904702\
 C,0,2.7678305468,1.7271311136,3.5971001241\H,0,4.1132019745,-3.5795561
 741,-3.027900635\C,0,3.6075221804,2.139316478,0.5758535904\C,0,4.42420
 06252,-2.5322906651,-2.875719283\H,0,5.5119997802,2.2978999913,-1.0526
 769525\C,0,5.6967866126,1.8383708876,-2.0312611139\H,0,4.5114761236,-2
 .0742053634,-3.8659027632\H,0,5.8911456945,2.6592628428,-2.7416620577\
 C,0,3.6242479819,-1.0860849556,2.8851771074\N,0,4.0158183061,-0.729608
 8184,1.6552994524\C,0,2.4025366385,3.1843262654,3.3978844589\H,0,4.022
 3506759,-3.0964174097,-0.2780007683\H,0,2.6697395701,1.4701252509,4.67
 09002047\H,0,5.7799436657,-0.3121948079,-3.7446049208\H,0,1.4363625606
 ,3.4360818845,3.8592086068\C,0,5.4716045291,-0.6777267454,-0.263870534
 3\H,0,3.1707697878,3.8139853942,3.8702054007\H,0,5.4254247581,-2.56286
 01059,-2.4184304802\C,0,5.1556539881,-1.1836284424,1.1130582644\C,0,4.
 4110587209,-1.9271461003,3.6657434198\H,0,6.6143977022,1.2322470725,-1
 .9789578089\H,0,4.0910848498,-2.2036181178,4.6714480508\H,0,6.02917449
 56,0.2649058912,-0.1476212554\H,0,6.1225323144,-1.3781712764,-0.807802
 854\C,0,5.9771979203,-2.0489384317,1.8366634863\C,0,5.6005988749,-2.41
 50045312,3.1261198969\H,0,6.9010049382,-2.423814928,1.3938948682\H,0,6
 .235317227,-3.0825671432,3.7121627691\H,0,0.4053490117,-0.5621992274,0
 .3933730766\O,0,4.1449690705,3.1843148521,0.5938484574\H,0,-1.21285222
 18,1.181677148,4.0982251175\H,0,0.2791723572,1.6115141711,4.9620523904
 \H,0,-0.1002948952,-0.0945536709,4.61627264\H,0,0.0518095897,0.3588887
 09,2.1297091626\H,0,0.373583742,2.0477200133,2.4371941762\H,0,-0.75661
 24106,0.764183818,-0.4580663812\\Version=ES64L-G16RevA.03\State=3-A\HF
 =-3109.9518027\S2=2.016408\S2-1=0.\S2A=2.000158\RMSD=1.230e-09\Dipole=
 -2.2138493,-1.9426597,5.7178181\Quadrupole=35.0335885,-22.981914,-12.0
 516745,-36.3866584,-18.4504725,-11.3715057\PG=C01 [X(C40H74N4O6P2Ru2)]
 \\@


 THESE ARE THE TIMES THAT TRY MENS SOULS.
 THE SUMMER SOLDIER AND THE SUNSHINE PATRIOT WILL IN THIS CRISIS,
 SHRINK FROM THE SERVICE OF HIS COUNTRY.  BUT HE THAT STANDS NOW,
 DESERVES THE LOVE AND THANKS OF MAN AND WOMAN.
 TYRANNY, LIKE HELL, IS NOT EASILY CONQUERED,
 YET WE HAVE THIS CONSOLATION WITH US,
 THAT THE HARDER THE CONFLICT, THE MORE GLORIOUS THE TRIUMPH.
 WHAT WE OBTAIN TOO CHEAP, WE ESTEEM TOO LIGHTLY, 
 'TIS DEARNESS ONLY THAT GIVES EVERYTHING ITS VALUE.

                                              -- TOM PAINE
 Job cpu time:       6 days 16 hours 30 minutes 17.6 seconds.
 Elapsed time:       0 days 10 hours  2 minutes 47.0 seconds.
 File lengths (MBytes):  RWF=   7599 Int=      0 D2E=      0 Chk=    607 Scr=      1
 Normal termination of Gaussian 16 at Sat Mar 14 07:43:52 2020.
