128
	Energy: -1951524.2043341
H         -0.03271        1.60418        4.13717
C          0.93903        1.19294        3.83039
H          1.55757        1.10677        4.73735
H          1.40931        1.90677        3.13456
H          1.46667        1.59848       -2.33918
O          1.96714        2.11966        1.02547
H          3.26370        3.58976       -1.40532
O          1.13721       -0.21512       -0.12088
H          0.67013        2.31304       -0.01713
C          0.70514       -0.13262        3.14136
H          1.65072        1.13562       -4.04736
H          0.23184       -0.85739        3.83074
C          2.20339        1.42983       -3.13929
H          3.78233        3.29263        0.25363
H          2.69252        2.39138       -3.35541
H          0.01209       -0.01986        2.29622
C          4.15143        3.47739       -0.76538
H          4.70769        4.42922       -0.78539
H          0.74442       -1.81454        1.29101
Ru         2.84345        0.41858        0.84464
H          1.84130       -0.99793       -1.75221
N          1.94541       -0.73808        2.59715
C          1.60894       -2.01774        1.94199
C          3.21917        0.33453       -2.80832
H          1.88886       -1.17928       -3.54147
H          4.74593        2.90046       -3.37196
C          2.49751       -1.00907       -2.63714
C          5.06992        2.35683       -1.26636
P          4.03937        0.75614       -1.14019
H          1.31415       -2.78482        2.67687
C          5.56579        2.70422       -2.66978
H          3.29420        0.02463        4.00180
H          1.72024       -1.32990        5.41648
H          6.15948        3.63055       -2.59746
C          2.96490       -0.96123        3.65394
H          3.65865       -0.29009       -4.80620
C          4.23993        0.99765        1.88691
C          4.20926        0.16512       -3.96646
H          6.07936        1.98017        0.66517
C          6.30687        2.25095       -0.37099
H          4.63229        1.10637       -4.32961
H          6.79448        3.23921       -0.34468
C          2.74500       -2.50792        1.09336
N          3.49427       -1.54532        0.52592
C          2.53635       -1.79930        4.84880
H          3.21037       -1.84541       -2.56623
H          3.83516       -1.42327        3.16440
H          6.22003        1.92761       -3.09094
H          2.22104       -2.81646        4.57277
C          5.23608       -0.66838       -0.89074
H          3.39534       -1.89987        5.52898
H          5.03647       -0.52011       -3.72437
C          4.50474       -1.84421       -0.31228
C          3.00870       -3.85068        0.84361
H          7.04318        1.53799       -0.77358
H          2.39588       -4.62062        1.31359
H          5.96418       -0.30988       -0.14538
H          5.79248       -0.94732       -1.79631
C          4.80936       -3.17184       -0.60228
C          4.05194       -4.18314       -0.01677
H          5.62669       -3.40435       -1.28555
H          4.27449       -5.22961       -0.23262
O          5.05375        1.38425        2.62202
C         -0.17527       -3.89764       -1.73467
H         -1.24587        1.94143        1.62104
O          0.05360        2.34163       -0.80701
H         -2.09722        3.65271       -0.87619
O         -1.42466       -0.63826        0.77242
H         -0.74161        1.85095       -0.54158
C         -0.72051       -2.48274       -1.60385
H         -1.71046        2.83297        3.09142
C         -2.00864        2.60120        2.05539
H         -2.73850        2.72199       -2.23269
H         -2.00637        3.54772        1.49496
C         -2.98459        3.51026       -1.50902
H         -3.16278        4.44821       -2.06195
H         -1.89005       -2.72701        0.59986
Ru        -2.72275       -0.16773       -0.79566
H         -2.56150       -0.09991        2.23946
N         -2.17984       -2.34650       -1.40602
C         -2.59716       -3.05718       -0.18043
C         -3.37671        1.92043        2.06136
H         -2.87080        0.75163        3.79098
H         -3.78661        4.67535        0.82229
C         -3.25875        0.56585        2.77370
C         -4.24013        3.16238       -0.70340
P         -3.83908        1.54269        0.24875
H         -2.55567       -4.15280       -0.31104
C         -4.61001        4.36190        0.16717
H         -4.00259       -2.53275       -2.38774
H         -2.33659       -1.32908       -3.95335
H         -4.83577        5.21175       -0.49896
C         -2.96552       -2.86448       -2.54726
H         -4.14001        2.67516        3.91761
C         -3.52292        0.24424       -2.37986
C         -4.38657        2.76361        2.84614
H         -5.27115        2.04492       -2.30541
C         -5.40753        2.92610       -1.66678
H         -4.35929        3.82863        2.59535
H         -5.48364        3.80019       -2.33498
C         -3.96012       -2.64603        0.30186
N         -4.22295       -1.33845        0.18289
C         -2.48161       -2.41610       -3.91157
H         -4.24057        0.07946        2.89004
H         -2.97449       -3.97228       -2.50949
H         -5.50385        4.17952        0.78007
H         -1.54096       -2.90786       -4.19977
C         -5.50898        0.68212        0.44494
H         -3.23887       -2.67937       -4.66455
H         -5.42152        2.40630        2.72913
C         -5.34408       -0.79136        0.67597
C         -4.86654       -3.49958        0.92281
H         -6.36742        2.84197       -1.13418
H         -4.65076       -4.56583        1.00540
H         -6.00520        0.80826       -0.53016
H         -6.16164        1.13571        1.20551
C         -6.28211       -1.59085        1.33036
C         -6.03973       -2.95704        1.44578
H         -7.19098       -1.14560        1.73742
H         -6.76658       -3.60086        1.94491
H         -0.51848       -0.41630        0.47013
O         -3.98373        0.48462       -3.43393
H          0.91129       -3.83865       -1.90240
H         -0.61188       -4.45486       -2.57866
H         -0.32861       -4.49142       -0.82007
H         -0.24340       -1.96131       -0.76500
H         -0.46742       -1.89627       -2.49584
H          0.80147        0.56698       -0.59067
