 Entering Gaussian System, Link 0=g16
 Initial command:
 /cluster/chemistry/gaussian/g16/l1.exe "/scratch/js1212.723652/scratch/Gau-23568.inp" -scrdir="/scratch/js1212.723652/scratch/"
 Entering Link 1 = /cluster/chemistry/gaussian/g16/l1.exe PID=     23569.
  
 Copyright (c) 1988,1990,1992,1993,1995,1998,2003,2009,2016,
            Gaussian, Inc.  All Rights Reserved.
  
 This is part of the Gaussian(R) 16 program.  It is based on
 the Gaussian(R) 09 system (copyright 2009, Gaussian, Inc.),
 the Gaussian(R) 03 system (copyright 2003, Gaussian, Inc.),
 the Gaussian(R) 98 system (copyright 1998, Gaussian, Inc.),
 the Gaussian(R) 94 system (copyright 1995, Gaussian, Inc.),
 the Gaussian 92(TM) system (copyright 1992, Gaussian, Inc.),
 the Gaussian 90(TM) system (copyright 1990, Gaussian, Inc.),
 the Gaussian 88(TM) system (copyright 1988, Gaussian, Inc.),
 the Gaussian 86(TM) system (copyright 1986, Carnegie Mellon
 University), and the Gaussian 82(TM) system (copyright 1983,
 Carnegie Mellon University). Gaussian is a federally registered
 trademark of Gaussian, Inc.
  
 This software contains proprietary and confidential information,
 including trade secrets, belonging to Gaussian, Inc.
  
 This software is provided under written license and may be
 used, copied, transmitted, or stored only in accord with that
 written license.
  
 The following legend is applicable only to US Government
 contracts under FAR:
  
                    RESTRICTED RIGHTS LEGEND
  
 Use, reproduction and disclosure by the US Government is
 subject to restrictions as set forth in subparagraphs (a)
 and (c) of the Commercial Computer Software - Restricted
 Rights clause in FAR 52.227-19.
  
 Gaussian, Inc.
 340 Quinnipiac St., Bldg. 40, Wallingford CT 06492
  
  
 ---------------------------------------------------------------
 Warning -- This program may not be used in any manner that
 competes with the business of Gaussian, Inc. or will provide
 assistance to any competitor of Gaussian, Inc.  The licensee
 of this program is prohibited from giving any competitor of
 Gaussian, Inc. access to this program.  By using this program,
 the user acknowledges that Gaussian, Inc. is engaged in the
 business of creating and licensing software in the field of
 computational chemistry and represents and warrants to the
 licensee that it is not a competitor of Gaussian, Inc. and that
 it will not use this program in any manner prohibited above.
 ---------------------------------------------------------------
  

 Cite this work as:
 Gaussian 16, Revision A.03,
 M. J. Frisch, G. W. Trucks, H. B. Schlegel, G. E. Scuseria, 
 M. A. Robb, J. R. Cheeseman, G. Scalmani, V. Barone, 
 G. A. Petersson, H. Nakatsuji, X. Li, M. Caricato, A. V. Marenich, 
 J. Bloino, B. G. Janesko, R. Gomperts, B. Mennucci, H. P. Hratchian, 
 J. V. Ortiz, A. F. Izmaylov, J. L. Sonnenberg, D. Williams-Young, 
 F. Ding, F. Lipparini, F. Egidi, J. Goings, B. Peng, A. Petrone, 
 T. Henderson, D. Ranasinghe, V. G. Zakrzewski, J. Gao, N. Rega, 
 G. Zheng, W. Liang, M. Hada, M. Ehara, K. Toyota, R. Fukuda, 
 J. Hasegawa, M. Ishida, T. Nakajima, Y. Honda, O. Kitao, H. Nakai, 
 T. Vreven, K. Throssell, J. A. Montgomery, Jr., J. E. Peralta, 
 F. Ogliaro, M. J. Bearpark, J. J. Heyd, E. N. Brothers, K. N. Kudin, 
 V. N. Staroverov, T. A. Keith, R. Kobayashi, J. Normand, 
 K. Raghavachari, A. P. Rendell, J. C. Burant, S. S. Iyengar, 
 J. Tomasi, M. Cossi, J. M. Millam, M. Klene, C. Adamo, R. Cammi, 
 J. W. Ochterski, R. L. Martin, K. Morokuma, O. Farkas, 
 J. B. Foresman, and D. J. Fox, Gaussian, Inc., Wallingford CT, 2016.
 
 ******************************************
 Gaussian 16:  ES64L-G16RevA.03 25-Dec-2016
                13-Mar-2020 
 ******************************************
 %rwf=/scratch/js1212.723652/G-R2-R2-Down-GPF-T.rwf
 %nosave
 %nprocshared=20
 Will use up to   20 processors via shared memory.
 %mem=3000MB
 %chk=/scratch/js1212.723652/G-R2-R2-Down-GPO-T-H2O-Moved.chk
 ----------------------------------------------------------------------
 # freq genecp pbe1pbe EmpiricalDispersion=GD3BJ geom=AllCheck Guess=TC
 heck
 ----------------------------------------------------------------------
 1/10=4,29=7,30=1,38=1/1,3;
 2/12=2,40=1/2;
 3/5=7,11=2,14=-4,16=1,17=8,25=1,30=1,71=2,74=-13,116=-2,124=41,140=1/1,2,3;
 4/5=101/1;
 5/5=2,38=6,98=1/2;
 8/6=4,10=90,11=11/1;
 11/6=1,8=1,9=11,15=111,16=1/1,2,10;
 10/6=1/2;
 6/7=2,8=2,9=2,10=2,28=1/1;
 7/8=1,10=1,25=1/1,2,3,16;
 1/10=4,30=1/3;
 99//99;
 Structure from the checkpoint file:  "/scratch/js1212.723652/G-R2-R2-Down-GPO-T-H2O-Moved.chk"
 -------------------
 Title Card Required
 -------------------
 Charge =  0 Multiplicity = 3
 Redundant internal coordinates found in file.  (old form).
 H,0,-0.0829430788,-3.7119200872,-2.3645937809
 C,0,-1.0714019335,-3.4238173566,-1.9805898425
 H,0,-1.7431147061,-4.2831612036,-2.1319834927
 H,0,-1.4338800197,-2.5685016477,-2.5738265204
 H,0,-1.2262347471,2.7254565651,-1.1627811506
 O,0,-1.8549851589,-0.4245746277,-2.3976474366
 H,0,-2.8740037374,2.335808004,-3.4430456823
 O,0,-1.1896941486,0.17408182,0.18171505
 H,0,-0.4913866825,0.5399602469,-2.2675758205
 C,0,-0.9275198667,-3.0295912427,-0.5278520154
 H,0,-1.3613376256,4.3168164692,-0.3783607988
 H,0,-0.5627307164,-3.8809891608,0.0776188272
 C,0,-1.931592184,3.5270220687,-0.8956730257
 H,0,-3.5067720527,0.692403795,-3.5336156866
 H,0,-2.3150955254,3.9638135763,-1.8298448618
 H,0,-0.1825319422,-2.23075197,-0.4088715059
 C,0,-3.8014622518,1.7516057324,-3.5365610281
 H,0,-4.2631403741,1.9995802949,-4.5067070842
 H,0,-1.0266145993,-1.5511023936,1.4867092753
 Ru,0,-2.8775651067,-0.5219452899,-0.7731122959
 H,0,-1.8761983539,1.6642161976,1.2199771084
 N,0,-2.188575475,-2.5286215971,0.0719819979
 C,0,-1.9401912515,-2.1657604108,1.4814570762
 C,0,-3.0628953783,3.0593298055,0.0221811994
 H,0,-1.8445919856,3.3808103409,1.757469144
 H,0,-4.3071559015,4.2280292121,-2.4915120712
 C,0,-2.4820480809,2.57412081,1.3572993126
 C,0,-4.7937843334,2.0852115779,-2.4166239705
 P,0,-3.9278267647,1.5709410864,-0.7961947883
 H,0,-1.7593075182,-3.0572199068,2.1042961748
 C,0,-5.1784323447,3.5615002997,-2.5103263937
 H,0,-3.5324707189,-3.6539894044,-1.0688332462
 H,0,-2.1721967174,-5.4180545799,0.0935389566
 H,0,-5.6846894013,3.7168536259,-3.4774676695
 C,0,-3.2798798814,-3.532811757,-0.0091773173
 H,0,-3.4516878331,4.9201509468,1.0024739473
 C,0,-4.2668284467,-1.3260177048,-1.6648689342
 C,0,-4.0009708404,4.2288938888,0.3421728364
 H,0,-5.936612436,0.1947805612,-2.5253840961
 C,0,-6.0814760283,1.2776347883,-2.5971444635
 H,0,-4.3127850285,4.800664835,-0.5368214445
 H,0,-6.4739482866,1.4826194902,-3.6066358842
 C,0,-3.0703900545,-1.3518311153,2.0393732907
 N,0,-3.6935161425,-0.552735062,1.154414509
 C,0,-2.9974539693,-4.897591635,0.600196463
 H,0,-3.2737303846,2.3902369943,2.1003228534
 H,0,-4.1624707142,-3.0834059065,0.4699362965
 H,0,-5.8797620595,3.866270859,-1.7205330343
 H,0,-2.7655912283,-4.8518410637,1.6746092838
 C,0,-5.2658003455,1.1306934263,0.4446101616
 H,0,-3.8973853621,-5.5208558977,0.4893178512
 H,0,-4.9011910141,3.9157998234,0.8935341867
 C,0,-4.6812989341,0.2798843448,1.533887775
 C,0,-3.4463512751,-1.3547527021,3.378616406
 H,0,-6.8593561833,1.5827397557,-1.879956473
 H,0,-2.9353755929,-2.0106328827,4.0842843774
 H,0,-5.9956164403,0.5252667859,-0.1166736068
 H,0,-5.7967020053,2.0005709798,0.8555772629
 C,0,-5.0943395405,0.322226813,2.8632079386
 C,0,-4.4686990284,-0.5047594185,3.7926677589
 H,0,-5.8921665797,1.0026944461,3.1622000652
 H,0,-4.7775045806,-0.4850877775,4.8393215249
 O,0,-5.0786374417,-1.909722485,-2.258505084
 C,0,-0.1473534539,0.9281367054,4.2107114835
 H,0,1.2900469986,-1.2724022713,-2.0816062495
 O,0,0.1665939944,1.2735828747,-2.0840123424
 H,0,2.4325779561,1.446736926,-3.1726250055
 O,0,1.2688720217,-0.9666333848,0.622644665
 H,0,0.8963209601,0.8599155773,-1.5941606203
 C,0,0.5217073282,1.0414285265,2.8484035607
 H,0,1.7574153798,-2.5664919516,-3.2127968468
 C,0,2.0874802835,-1.6209912504,-2.7511940786
 H,0,3.0546718641,2.5424747294,-1.9357240558
 H,0,2.2050163777,-0.885487678,-3.5606469937
 C,0,3.3351433954,1.9735441822,-2.8319855009
 H,0,3.6308488168,2.6870867937,-3.6197961772
 H,0,1.5428252993,-1.2450489767,2.7337281945
 Ru,0,2.6880168201,0.5664194747,0.5894639446
 H,0,2.3712095537,-2.3756074359,-0.1081679306
 N,0,1.9746466571,0.7704238194,2.7948609325
 C,0,2.2563305193,-0.5983562449,3.2727684008
 C,0,3.382586092,-1.8597429993,-1.9760710864
 H,0,2.6760607927,-3.7458035143,-1.2296060638
 H,0,4.1176408003,-0.1321568341,-4.3777517096
 C,0,3.0987134068,-2.8159621672,-0.8093263085
 C,0,4.5069978929,1.0270959501,-2.5537374782
 P,0,3.9037251174,-0.1957750843,-1.2004179037
 H,0,2.1182710638,-0.6847240746,4.3648547688
 C,0,4.9416080983,0.3871481594,-3.8709803341
 H,0,3.8216076969,1.5625649685,3.3260110175
 H,0,2.3636381028,3.4508829265,2.3340048699
 H,0,5.2823212178,1.1904834046,-4.5458904702
 C,0,2.7678305468,1.7271311136,3.5971001241
 H,0,4.1132019745,-3.5795561741,-3.027900635
 C,0,3.6075221804,2.139316478,0.5758535904
 C,0,4.4242006252,-2.5322906651,-2.875719283
 H,0,5.5119997802,2.2978999913,-1.0526769525
 C,0,5.6967866126,1.8383708876,-2.0312611139
 H,0,4.5114761236,-2.0742053634,-3.8659027632
 H,0,5.8911456945,2.6592628428,-2.7416620577
 C,0,3.6242479819,-1.0860849556,2.8851771074
 N,0,4.0158183061,-0.7296088184,1.6552994524
 C,0,2.4025366385,3.1843262654,3.3978844589
 H,0,4.0223506759,-3.0964174097,-0.2780007683
 H,0,2.6697395701,1.4701252509,4.6709002047
 H,0,5.7799436657,-0.3121948079,-3.7446049208
 H,0,1.4363625606,3.4360818845,3.8592086068
 C,0,5.4716045291,-0.6777267454,-0.2638705343
 H,0,3.1707697878,3.8139853942,3.8702054007
 H,0,5.4254247581,-2.5628601059,-2.4184304802
 C,0,5.1556539881,-1.1836284424,1.1130582644
 C,0,4.4110587209,-1.9271461003,3.6657434198
 H,0,6.6143977022,1.2322470725,-1.9789578089
 H,0,4.0910848498,-2.2036181178,4.6714480508
 H,0,6.0291744956,0.2649058912,-0.1476212554
 H,0,6.1225323144,-1.3781712764,-0.807802854
 C,0,5.9771979203,-2.0489384317,1.8366634863
 C,0,5.6005988749,-2.4150045312,3.1261198969
 H,0,6.9010049382,-2.423814928,1.3938948682
 H,0,6.235317227,-3.0825671432,3.7121627691
 H,0,0.4053490117,-0.5621992274,0.3933730766
 O,0,4.1449690705,3.1843148521,0.5938484574
 H,0,-1.2128522218,1.181677148,4.0982251175
 H,0,0.2791723572,1.6115141711,4.9620523904
 H,0,-0.1002948952,-0.0945536709,4.61627264
 H,0,0.0518095897,0.358888709,2.1297091626
 H,0,0.373583742,2.0477200133,2.4371941762
 H,0,-0.7566124106,0.764183818,-0.4580663812
 Recover connectivity data from disk.

 GradGradGradGradGradGradGradGradGradGradGradGradGradGradGradGradGradGrad
 Berny optimization.
 Initialization pass.
                           ----------------------------
                           !    Initial Parameters    !
                           ! (Angstroms and Degrees)  !
 --------------------------                            --------------------------
 ! Name  Definition              Value          Derivative Info.                !
 --------------------------------------------------------------------------------
 ! R1    R(1,2)                  1.0989         calculate D2E/DX2 analytically  !
 ! R2    R(2,3)                  1.1012         calculate D2E/DX2 analytically  !
 ! R3    R(2,4)                  1.1022         calculate D2E/DX2 analytically  !
 ! R4    R(2,10)                 1.5121         calculate D2E/DX2 analytically  !
 ! R5    R(5,13)                 1.1006         calculate D2E/DX2 analytically  !
 ! R6    R(6,9)                  1.6753         calculate D2E/DX2 analytically  !
 ! R7    R(6,20)                 1.922          calculate D2E/DX2 analytically  !
 ! R8    R(7,17)                 1.1001         calculate D2E/DX2 analytically  !
 ! R9    R(8,20)                 2.0604         calculate D2E/DX2 analytically  !
 ! R10   R(8,121)                1.7695         calculate D2E/DX2 analytically  !
 ! R11   R(8,128)                0.9722         calculate D2E/DX2 analytically  !
 ! R12   R(9,14)                 3.2739         calculate D2E/DX2 analytically  !
 ! R13   R(9,66)                 1.0024         calculate D2E/DX2 analytically  !
 ! R14   R(10,12)                1.1066         calculate D2E/DX2 analytically  !
 ! R15   R(10,16)                1.0988         calculate D2E/DX2 analytically  !
 ! R16   R(10,22)                1.4836         calculate D2E/DX2 analytically  !
 ! R17   R(11,13)                1.103          calculate D2E/DX2 analytically  !
 ! R18   R(13,15)                1.1002         calculate D2E/DX2 analytically  !
 ! R19   R(13,24)                1.53           calculate D2E/DX2 analytically  !
 ! R20   R(14,17)                1.0994         calculate D2E/DX2 analytically  !
 ! R21   R(17,18)                1.1026         calculate D2E/DX2 analytically  !
 ! R22   R(17,28)                1.5331         calculate D2E/DX2 analytically  !
 ! R23   R(19,23)                1.1011         calculate D2E/DX2 analytically  !
 ! R24   R(20,29)                2.3417         calculate D2E/DX2 analytically  !
 ! R25   R(20,37)                1.8363         calculate D2E/DX2 analytically  !
 ! R26   R(20,44)                2.0933         calculate D2E/DX2 analytically  !
 ! R27   R(21,27)                1.1017         calculate D2E/DX2 analytically  !
 ! R28   R(22,23)                1.4765         calculate D2E/DX2 analytically  !
 ! R29   R(22,35)                1.4852         calculate D2E/DX2 analytically  !
 ! R30   R(23,30)                1.1024         calculate D2E/DX2 analytically  !
 ! R31   R(23,43)                1.5004         calculate D2E/DX2 analytically  !
 ! R32   R(24,27)                1.5347         calculate D2E/DX2 analytically  !
 ! R33   R(24,29)                1.9061         calculate D2E/DX2 analytically  !
 ! R34   R(24,38)                1.5331         calculate D2E/DX2 analytically  !
 ! R35   R(25,27)                1.1033         calculate D2E/DX2 analytically  !
 ! R36   R(26,31)                1.0971         calculate D2E/DX2 analytically  !
 ! R37   R(27,46)                1.1012         calculate D2E/DX2 analytically  !
 ! R38   R(28,29)                1.9079         calculate D2E/DX2 analytically  !
 ! R39   R(28,31)                1.5285         calculate D2E/DX2 analytically  !
 ! R40   R(28,40)                1.5307         calculate D2E/DX2 analytically  !
 ! R41   R(29,50)                1.8771         calculate D2E/DX2 analytically  !
 ! R42   R(31,34)                1.1026         calculate D2E/DX2 analytically  !
 ! R43   R(31,48)                1.0993         calculate D2E/DX2 analytically  !
 ! R44   R(32,35)                1.0961         calculate D2E/DX2 analytically  !
 ! R45   R(33,45)                1.0994         calculate D2E/DX2 analytically  !
 ! R46   R(35,45)                1.5211         calculate D2E/DX2 analytically  !
 ! R47   R(35,47)                1.1002         calculate D2E/DX2 analytically  !
 ! R48   R(36,38)                1.1025         calculate D2E/DX2 analytically  !
 ! R49   R(37,63)                1.1628         calculate D2E/DX2 analytically  !
 ! R50   R(38,41)                1.094          calculate D2E/DX2 analytically  !
 ! R51   R(38,52)                1.1011         calculate D2E/DX2 analytically  !
 ! R52   R(39,40)                1.0949         calculate D2E/DX2 analytically  !
 ! R53   R(40,42)                1.1023         calculate D2E/DX2 analytically  !
 ! R54   R(40,55)                1.1012         calculate D2E/DX2 analytically  !
 ! R55   R(43,44)                1.3454         calculate D2E/DX2 analytically  !
 ! R56   R(43,54)                1.391          calculate D2E/DX2 analytically  !
 ! R57   R(44,53)                1.3465         calculate D2E/DX2 analytically  !
 ! R58   R(45,49)                1.1001         calculate D2E/DX2 analytically  !
 ! R59   R(45,51)                1.1003         calculate D2E/DX2 analytically  !
 ! R60   R(50,53)                1.5007         calculate D2E/DX2 analytically  !
 ! R61   R(50,57)                1.1019         calculate D2E/DX2 analytically  !
 ! R62   R(50,58)                1.0988         calculate D2E/DX2 analytically  !
 ! R63   R(53,59)                1.3927         calculate D2E/DX2 analytically  !
 ! R64   R(54,56)                1.0905         calculate D2E/DX2 analytically  !
 ! R65   R(54,60)                1.3925         calculate D2E/DX2 analytically  !
 ! R66   R(59,60)                1.3926         calculate D2E/DX2 analytically  !
 ! R67   R(59,61)                1.0904         calculate D2E/DX2 analytically  !
 ! R68   R(60,62)                1.0914         calculate D2E/DX2 analytically  !
 ! R69   R(64,70)                1.522          calculate D2E/DX2 analytically  !
 ! R70   R(64,123)               1.101          calculate D2E/DX2 analytically  !
 ! R71   R(64,124)               1.1016         calculate D2E/DX2 analytically  !
 ! R72   R(64,125)               1.1012         calculate D2E/DX2 analytically  !
 ! R73   R(65,72)                1.0981         calculate D2E/DX2 analytically  !
 ! R74   R(66,69)                0.9714         calculate D2E/DX2 analytically  !
 ! R75   R(67,75)                1.0992         calculate D2E/DX2 analytically  !
 ! R76   R(68,78)                2.0893         calculate D2E/DX2 analytically  !
 ! R77   R(68,121)               0.9807         calculate D2E/DX2 analytically  !
 ! R78   R(69,73)                2.7579         calculate D2E/DX2 analytically  !
 ! R79   R(69,78)                2.8398         calculate D2E/DX2 analytically  !
 ! R80   R(70,80)                1.479          calculate D2E/DX2 analytically  !
 ! R81   R(70,126)               1.0969         calculate D2E/DX2 analytically  !
 ! R82   R(70,127)               1.0971         calculate D2E/DX2 analytically  !
 ! R83   R(71,72)                1.1027         calculate D2E/DX2 analytically  !
 ! R84   R(72,74)                1.1            calculate D2E/DX2 analytically  !
 ! R85   R(72,82)                1.5281         calculate D2E/DX2 analytically  !
 ! R86   R(73,75)                1.098          calculate D2E/DX2 analytically  !
 ! R87   R(75,76)                1.1033         calculate D2E/DX2 analytically  !
 ! R88   R(75,86)                1.5318         calculate D2E/DX2 analytically  !
 ! R89   R(77,81)                1.1036         calculate D2E/DX2 analytically  !
 ! R90   R(78,87)                2.294          calculate D2E/DX2 analytically  !
 ! R91   R(78,95)                1.822          calculate D2E/DX2 analytically  !
 ! R92   R(78,102)               2.1398         calculate D2E/DX2 analytically  !
 ! R93   R(79,85)                1.1022         calculate D2E/DX2 analytically  !
 ! R94   R(80,81)                1.4769         calculate D2E/DX2 analytically  !
 ! R95   R(80,93)                1.4792         calculate D2E/DX2 analytically  !
 ! R96   R(81,88)                1.1042         calculate D2E/DX2 analytically  !
 ! R97   R(81,101)               1.5031         calculate D2E/DX2 analytically  !
 ! R98   R(82,85)                1.535          calculate D2E/DX2 analytically  !
 ! R99   R(82,87)                1.9084         calculate D2E/DX2 analytically  !
 ! R100  R(82,96)                1.5319         calculate D2E/DX2 analytically  !
 ! R101  R(83,85)                1.1045         calculate D2E/DX2 analytically  !
 ! R102  R(84,89)                1.0979         calculate D2E/DX2 analytically  !
 ! R103  R(85,104)               1.1018         calculate D2E/DX2 analytically  !
 ! R104  R(86,87)                1.9212         calculate D2E/DX2 analytically  !
 ! R105  R(86,89)                1.5276         calculate D2E/DX2 analytically  !
 ! R106  R(86,98)                1.5319         calculate D2E/DX2 analytically  !
 ! R107  R(87,108)               1.8888         calculate D2E/DX2 analytically  !
 ! R108  R(89,92)                1.1031         calculate D2E/DX2 analytically  !
 ! R109  R(89,106)               1.099          calculate D2E/DX2 analytically  !
 ! R110  R(90,93)                1.1005         calculate D2E/DX2 analytically  !
 ! R111  R(91,103)               1.0975         calculate D2E/DX2 analytically  !
 ! R112  R(93,103)               1.5154         calculate D2E/DX2 analytically  !
 ! R113  R(93,105)               1.1085         calculate D2E/DX2 analytically  !
 ! R114  R(94,96)                1.103          calculate D2E/DX2 analytically  !
 ! R115  R(95,122)               1.1752         calculate D2E/DX2 analytically  !
 ! R116  R(96,99)                1.0945         calculate D2E/DX2 analytically  !
 ! R117  R(96,110)               1.1011         calculate D2E/DX2 analytically  !
 ! R118  R(97,98)                1.0968         calculate D2E/DX2 analytically  !
 ! R119  R(98,100)               1.1029         calculate D2E/DX2 analytically  !
 ! R120  R(98,113)               1.101          calculate D2E/DX2 analytically  !
 ! R121  R(101,102)              1.339          calculate D2E/DX2 analytically  !
 ! R122  R(101,112)              1.3913         calculate D2E/DX2 analytically  !
 ! R123  R(102,111)              1.3414         calculate D2E/DX2 analytically  !
 ! R124  R(103,107)              1.0999         calculate D2E/DX2 analytically  !
 ! R125  R(103,109)              1.0999         calculate D2E/DX2 analytically  !
 ! R126  R(108,111)              1.5006         calculate D2E/DX2 analytically  !
 ! R127  R(108,115)              1.1013         calculate D2E/DX2 analytically  !
 ! R128  R(108,116)              1.1001         calculate D2E/DX2 analytically  !
 ! R129  R(111,117)              1.3955         calculate D2E/DX2 analytically  !
 ! R130  R(112,114)              1.091          calculate D2E/DX2 analytically  !
 ! R131  R(112,118)              1.3943         calculate D2E/DX2 analytically  !
 ! R132  R(117,118)              1.3923         calculate D2E/DX2 analytically  !
 ! R133  R(117,119)              1.0909         calculate D2E/DX2 analytically  !
 ! R134  R(118,120)              1.0918         calculate D2E/DX2 analytically  !
 ! R135  R(121,128)              1.9582         calculate D2E/DX2 analytically  !
 ! A1    A(1,2,3)              107.221          calculate D2E/DX2 analytically  !
 ! A2    A(1,2,4)              108.1308         calculate D2E/DX2 analytically  !
 ! A3    A(1,2,10)             108.5715         calculate D2E/DX2 analytically  !
 ! A4    A(3,2,4)              109.328          calculate D2E/DX2 analytically  !
 ! A5    A(3,2,10)             113.1773         calculate D2E/DX2 analytically  !
 ! A6    A(4,2,10)             110.2466         calculate D2E/DX2 analytically  !
 ! A7    A(9,6,20)             113.3647         calculate D2E/DX2 analytically  !
 ! A8    A(20,8,121)           130.7925         calculate D2E/DX2 analytically  !
 ! A9    A(20,8,128)           105.3681         calculate D2E/DX2 analytically  !
 ! A10   A(6,9,14)              41.1597         calculate D2E/DX2 analytically  !
 ! A11   A(6,9,66)             165.8925         calculate D2E/DX2 analytically  !
 ! A12   A(14,9,66)            129.8884         calculate D2E/DX2 analytically  !
 ! A13   A(2,10,12)            110.8816         calculate D2E/DX2 analytically  !
 ! A14   A(2,10,16)            110.9827         calculate D2E/DX2 analytically  !
 ! A15   A(2,10,22)            113.3025         calculate D2E/DX2 analytically  !
 ! A16   A(12,10,16)           106.0579         calculate D2E/DX2 analytically  !
 ! A17   A(12,10,22)           108.5896         calculate D2E/DX2 analytically  !
 ! A18   A(16,10,22)           106.6807         calculate D2E/DX2 analytically  !
 ! A19   A(5,13,11)            107.6964         calculate D2E/DX2 analytically  !
 ! A20   A(5,13,15)            107.8454         calculate D2E/DX2 analytically  !
 ! A21   A(5,13,24)            113.3797         calculate D2E/DX2 analytically  !
 ! A22   A(11,13,15)           107.1071         calculate D2E/DX2 analytically  !
 ! A23   A(11,13,24)           108.6506         calculate D2E/DX2 analytically  !
 ! A24   A(15,13,24)           111.8986         calculate D2E/DX2 analytically  !
 ! A25   A(9,14,17)            107.0236         calculate D2E/DX2 analytically  !
 ! A26   A(7,17,14)            106.5833         calculate D2E/DX2 analytically  !
 ! A27   A(7,17,18)            107.9603         calculate D2E/DX2 analytically  !
 ! A28   A(7,17,28)            111.5951         calculate D2E/DX2 analytically  !
 ! A29   A(14,17,18)           109.3444         calculate D2E/DX2 analytically  !
 ! A30   A(14,17,28)           112.4071         calculate D2E/DX2 analytically  !
 ! A31   A(18,17,28)           108.8316         calculate D2E/DX2 analytically  !
 ! A32   A(6,20,8)              86.4877         calculate D2E/DX2 analytically  !
 ! A33   A(6,20,29)            100.6614         calculate D2E/DX2 analytically  !
 ! A34   A(6,20,37)             90.8156         calculate D2E/DX2 analytically  !
 ! A35   A(8,20,29)             94.0176         calculate D2E/DX2 analytically  !
 ! A36   A(8,20,44)             84.1206         calculate D2E/DX2 analytically  !
 ! A37   A(29,20,37)            92.708          calculate D2E/DX2 analytically  !
 ! A38   A(29,20,44)            81.2227         calculate D2E/DX2 analytically  !
 ! A39   A(37,20,44)            98.3854         calculate D2E/DX2 analytically  !
 ! A40   A(10,22,23)           109.0237         calculate D2E/DX2 analytically  !
 ! A41   A(10,22,35)           111.9721         calculate D2E/DX2 analytically  !
 ! A42   A(23,22,35)           109.9948         calculate D2E/DX2 analytically  !
 ! A43   A(19,23,22)           106.3388         calculate D2E/DX2 analytically  !
 ! A44   A(19,23,30)           108.2138         calculate D2E/DX2 analytically  !
 ! A45   A(19,23,43)           108.6864         calculate D2E/DX2 analytically  !
 ! A46   A(22,23,30)           111.6049         calculate D2E/DX2 analytically  !
 ! A47   A(22,23,43)           111.1972         calculate D2E/DX2 analytically  !
 ! A48   A(30,23,43)           110.6209         calculate D2E/DX2 analytically  !
 ! A49   A(13,24,27)           109.7958         calculate D2E/DX2 analytically  !
 ! A50   A(13,24,29)           108.4601         calculate D2E/DX2 analytically  !
 ! A51   A(13,24,38)           110.1482         calculate D2E/DX2 analytically  !
 ! A52   A(27,24,29)           107.3602         calculate D2E/DX2 analytically  !
 ! A53   A(27,24,38)           106.9298         calculate D2E/DX2 analytically  !
 ! A54   A(29,24,38)           114.0586         calculate D2E/DX2 analytically  !
 ! A55   A(21,27,24)           111.1492         calculate D2E/DX2 analytically  !
 ! A56   A(21,27,25)           109.3504         calculate D2E/DX2 analytically  !
 ! A57   A(21,27,46)           109.97           calculate D2E/DX2 analytically  !
 ! A58   A(24,27,25)           107.6407         calculate D2E/DX2 analytically  !
 ! A59   A(24,27,46)           111.5728         calculate D2E/DX2 analytically  !
 ! A60   A(25,27,46)           107.0221         calculate D2E/DX2 analytically  !
 ! A61   A(17,28,29)           105.5457         calculate D2E/DX2 analytically  !
 ! A62   A(17,28,31)           109.1651         calculate D2E/DX2 analytically  !
 ! A63   A(17,28,40)           110.0947         calculate D2E/DX2 analytically  !
 ! A64   A(29,28,31)           115.2543         calculate D2E/DX2 analytically  !
 ! A65   A(29,28,40)           109.8637         calculate D2E/DX2 analytically  !
 ! A66   A(31,28,40)           106.897          calculate D2E/DX2 analytically  !
 ! A67   A(20,29,24)           119.3493         calculate D2E/DX2 analytically  !
 ! A68   A(20,29,28)           116.9257         calculate D2E/DX2 analytically  !
 ! A69   A(20,29,50)            95.9438         calculate D2E/DX2 analytically  !
 ! A70   A(24,29,28)           111.1084         calculate D2E/DX2 analytically  !
 ! A71   A(24,29,50)           102.872          calculate D2E/DX2 analytically  !
 ! A72   A(28,29,50)           107.5246         calculate D2E/DX2 analytically  !
 ! A73   A(26,31,28)           112.6982         calculate D2E/DX2 analytically  !
 ! A74   A(26,31,34)           107.1011         calculate D2E/DX2 analytically  !
 ! A75   A(26,31,48)           109.019          calculate D2E/DX2 analytically  !
 ! A76   A(28,31,34)           107.7824         calculate D2E/DX2 analytically  !
 ! A77   A(28,31,48)           112.5989         calculate D2E/DX2 analytically  !
 ! A78   A(34,31,48)           107.3484         calculate D2E/DX2 analytically  !
 ! A79   A(22,35,32)           107.2719         calculate D2E/DX2 analytically  !
 ! A80   A(22,35,45)           116.6357         calculate D2E/DX2 analytically  !
 ! A81   A(22,35,47)           106.8256         calculate D2E/DX2 analytically  !
 ! A82   A(32,35,45)           109.3235         calculate D2E/DX2 analytically  !
 ! A83   A(32,35,47)           106.3376         calculate D2E/DX2 analytically  !
 ! A84   A(45,35,47)           109.9368         calculate D2E/DX2 analytically  !
 ! A85   A(24,38,36)           107.3661         calculate D2E/DX2 analytically  !
 ! A86   A(24,38,41)           113.9181         calculate D2E/DX2 analytically  !
 ! A87   A(24,38,52)           112.8212         calculate D2E/DX2 analytically  !
 ! A88   A(36,38,41)           107.1887         calculate D2E/DX2 analytically  !
 ! A89   A(36,38,52)           106.6009         calculate D2E/DX2 analytically  !
 ! A90   A(41,38,52)           108.5372         calculate D2E/DX2 analytically  !
 ! A91   A(28,40,39)           113.7519         calculate D2E/DX2 analytically  !
 ! A92   A(28,40,42)           108.0241         calculate D2E/DX2 analytically  !
 ! A93   A(28,40,55)           111.7952         calculate D2E/DX2 analytically  !
 ! A94   A(39,40,42)           106.9208         calculate D2E/DX2 analytically  !
 ! A95   A(39,40,55)           108.9547         calculate D2E/DX2 analytically  !
 ! A96   A(42,40,55)           107.0625         calculate D2E/DX2 analytically  !
 ! A97   A(23,43,44)           115.2465         calculate D2E/DX2 analytically  !
 ! A98   A(23,43,54)           124.0882         calculate D2E/DX2 analytically  !
 ! A99   A(44,43,54)           120.6217         calculate D2E/DX2 analytically  !
 ! A100  A(20,44,43)           115.7143         calculate D2E/DX2 analytically  !
 ! A101  A(20,44,53)           122.4362         calculate D2E/DX2 analytically  !
 ! A102  A(43,44,53)           121.4459         calculate D2E/DX2 analytically  !
 ! A103  A(33,45,35)           112.3037         calculate D2E/DX2 analytically  !
 ! A104  A(33,45,49)           108.1541         calculate D2E/DX2 analytically  !
 ! A105  A(33,45,51)           107.419          calculate D2E/DX2 analytically  !
 ! A106  A(35,45,49)           113.1464         calculate D2E/DX2 analytically  !
 ! A107  A(35,45,51)           108.4219         calculate D2E/DX2 analytically  !
 ! A108  A(49,45,51)           107.1194         calculate D2E/DX2 analytically  !
 ! A109  A(29,50,53)           109.5816         calculate D2E/DX2 analytically  !
 ! A110  A(29,50,57)           105.322          calculate D2E/DX2 analytically  !
 ! A111  A(29,50,58)           113.9497         calculate D2E/DX2 analytically  !
 ! A112  A(53,50,57)           108.4331         calculate D2E/DX2 analytically  !
 ! A113  A(53,50,58)           111.4401         calculate D2E/DX2 analytically  !
 ! A114  A(57,50,58)           107.7858         calculate D2E/DX2 analytically  !
 ! A115  A(44,53,50)           115.5789         calculate D2E/DX2 analytically  !
 ! A116  A(44,53,59)           120.3573         calculate D2E/DX2 analytically  !
 ! A117  A(50,53,59)           124.0621         calculate D2E/DX2 analytically  !
 ! A118  A(43,54,56)           119.8432         calculate D2E/DX2 analytically  !
 ! A119  A(43,54,60)           118.909          calculate D2E/DX2 analytically  !
 ! A120  A(56,54,60)           121.2459         calculate D2E/DX2 analytically  !
 ! A121  A(53,59,60)           119.0642         calculate D2E/DX2 analytically  !
 ! A122  A(53,59,61)           119.849          calculate D2E/DX2 analytically  !
 ! A123  A(60,59,61)           121.0852         calculate D2E/DX2 analytically  !
 ! A124  A(54,60,59)           119.5956         calculate D2E/DX2 analytically  !
 ! A125  A(54,60,62)           120.2559         calculate D2E/DX2 analytically  !
 ! A126  A(59,60,62)           120.1484         calculate D2E/DX2 analytically  !
 ! A127  A(70,64,123)          108.4716         calculate D2E/DX2 analytically  !
 ! A128  A(70,64,124)          113.2114         calculate D2E/DX2 analytically  !
 ! A129  A(70,64,125)          112.3343         calculate D2E/DX2 analytically  !
 ! A130  A(123,64,124)         107.55           calculate D2E/DX2 analytically  !
 ! A131  A(123,64,125)         107.0287         calculate D2E/DX2 analytically  !
 ! A132  A(124,64,125)         107.963          calculate D2E/DX2 analytically  !
 ! A133  A(9,66,69)            105.8895         calculate D2E/DX2 analytically  !
 ! A134  A(78,68,121)          106.9636         calculate D2E/DX2 analytically  !
 ! A135  A(66,69,73)           105.4055         calculate D2E/DX2 analytically  !
 ! A136  A(66,69,78)           154.923          calculate D2E/DX2 analytically  !
 ! A137  A(73,69,78)            70.3986         calculate D2E/DX2 analytically  !
 ! A138  A(64,70,80)           116.7843         calculate D2E/DX2 analytically  !
 ! A139  A(64,70,126)          110.5996         calculate D2E/DX2 analytically  !
 ! A140  A(64,70,127)          110.1462         calculate D2E/DX2 analytically  !
 ! A141  A(80,70,126)          106.4458         calculate D2E/DX2 analytically  !
 ! A142  A(80,70,127)          106.6866         calculate D2E/DX2 analytically  !
 ! A143  A(126,70,127)         105.5048         calculate D2E/DX2 analytically  !
 ! A144  A(65,72,71)           108.0643         calculate D2E/DX2 analytically  !
 ! A145  A(65,72,74)           108.3037         calculate D2E/DX2 analytically  !
 ! A146  A(65,72,82)           110.8407         calculate D2E/DX2 analytically  !
 ! A147  A(71,72,74)           107.2928         calculate D2E/DX2 analytically  !
 ! A148  A(71,72,82)           109.3932         calculate D2E/DX2 analytically  !
 ! A149  A(74,72,82)           112.7788         calculate D2E/DX2 analytically  !
 ! A150  A(69,73,75)            89.1339         calculate D2E/DX2 analytically  !
 ! A151  A(67,75,73)           106.9508         calculate D2E/DX2 analytically  !
 ! A152  A(67,75,76)           107.9845         calculate D2E/DX2 analytically  !
 ! A153  A(67,75,86)           112.8514         calculate D2E/DX2 analytically  !
 ! A154  A(73,75,76)           108.434          calculate D2E/DX2 analytically  !
 ! A155  A(73,75,86)           111.5483         calculate D2E/DX2 analytically  !
 ! A156  A(76,75,86)           108.9211         calculate D2E/DX2 analytically  !
 ! A157  A(68,78,69)            70.0929         calculate D2E/DX2 analytically  !
 ! A158  A(68,78,87)            97.3862         calculate D2E/DX2 analytically  !
 ! A159  A(68,78,102)           88.2324         calculate D2E/DX2 analytically  !
 ! A160  A(69,78,87)            76.6289         calculate D2E/DX2 analytically  !
 ! A161  A(69,78,95)           102.9112         calculate D2E/DX2 analytically  !
 ! A162  A(87,78,95)            90.7765         calculate D2E/DX2 analytically  !
 ! A163  A(87,78,102)           81.8685         calculate D2E/DX2 analytically  !
 ! A164  A(95,78,102)          102.3235         calculate D2E/DX2 analytically  !
 ! A165  A(70,80,81)           110.2108         calculate D2E/DX2 analytically  !
 ! A166  A(70,80,93)           112.87           calculate D2E/DX2 analytically  !
 ! A167  A(81,80,93)           108.7629         calculate D2E/DX2 analytically  !
 ! A168  A(77,81,80)           105.1726         calculate D2E/DX2 analytically  !
 ! A169  A(77,81,88)           110.8812         calculate D2E/DX2 analytically  !
 ! A170  A(77,81,101)          105.801          calculate D2E/DX2 analytically  !
 ! A171  A(80,81,88)           111.6349         calculate D2E/DX2 analytically  !
 ! A172  A(80,81,101)          113.0077         calculate D2E/DX2 analytically  !
 ! A173  A(88,81,101)          110.0873         calculate D2E/DX2 analytically  !
 ! A174  A(72,82,85)           109.035          calculate D2E/DX2 analytically  !
 ! A175  A(72,82,87)           107.5401         calculate D2E/DX2 analytically  !
 ! A176  A(72,82,96)           110.3027         calculate D2E/DX2 analytically  !
 ! A177  A(85,82,87)           106.5422         calculate D2E/DX2 analytically  !
 ! A178  A(85,82,96)           107.3762         calculate D2E/DX2 analytically  !
 ! A179  A(87,82,96)           115.8373         calculate D2E/DX2 analytically  !
 ! A180  A(79,85,82)           110.8989         calculate D2E/DX2 analytically  !
 ! A181  A(79,85,83)           109.0167         calculate D2E/DX2 analytically  !
 ! A182  A(79,85,104)          110.3793         calculate D2E/DX2 analytically  !
 ! A183  A(82,85,83)           107.8171         calculate D2E/DX2 analytically  !
 ! A184  A(82,85,104)          111.7195         calculate D2E/DX2 analytically  !
 ! A185  A(83,85,104)          106.8571         calculate D2E/DX2 analytically  !
 ! A186  A(75,86,87)           106.3211         calculate D2E/DX2 analytically  !
 ! A187  A(75,86,89)           108.6542         calculate D2E/DX2 analytically  !
 ! A188  A(75,86,98)           109.2024         calculate D2E/DX2 analytically  !
 ! A189  A(87,86,89)           115.4746         calculate D2E/DX2 analytically  !
 ! A190  A(87,86,98)           109.9213         calculate D2E/DX2 analytically  !
 ! A191  A(89,86,98)           107.1567         calculate D2E/DX2 analytically  !
 ! A192  A(78,87,82)           117.5227         calculate D2E/DX2 analytically  !
 ! A193  A(78,87,86)           120.3012         calculate D2E/DX2 analytically  !
 ! A194  A(78,87,108)           97.9209         calculate D2E/DX2 analytically  !
 ! A195  A(82,87,86)           110.7592         calculate D2E/DX2 analytically  !
 ! A196  A(82,87,108)          101.872          calculate D2E/DX2 analytically  !
 ! A197  A(86,87,108)          104.5391         calculate D2E/DX2 analytically  !
 ! A198  A(84,89,86)           112.4978         calculate D2E/DX2 analytically  !
 ! A199  A(84,89,92)           107.088          calculate D2E/DX2 analytically  !
 ! A200  A(84,89,106)          108.9392         calculate D2E/DX2 analytically  !
 ! A201  A(86,89,92)           108.0808         calculate D2E/DX2 analytically  !
 ! A202  A(86,89,106)          112.609          calculate D2E/DX2 analytically  !
 ! A203  A(92,89,106)          107.3462         calculate D2E/DX2 analytically  !
 ! A204  A(80,93,90)           106.4486         calculate D2E/DX2 analytically  !
 ! A205  A(80,93,103)          114.9209         calculate D2E/DX2 analytically  !
 ! A206  A(80,93,105)          109.1458         calculate D2E/DX2 analytically  !
 ! A207  A(90,93,103)          110.0131         calculate D2E/DX2 analytically  !
 ! A208  A(90,93,105)          106.7802         calculate D2E/DX2 analytically  !
 ! A209  A(103,93,105)         109.2056         calculate D2E/DX2 analytically  !
 ! A210  A(82,96,94)           107.8276         calculate D2E/DX2 analytically  !
 ! A211  A(82,96,99)           113.6896         calculate D2E/DX2 analytically  !
 ! A212  A(82,96,110)          112.7406         calculate D2E/DX2 analytically  !
 ! A213  A(94,96,99)           107.1602         calculate D2E/DX2 analytically  !
 ! A214  A(94,96,110)          106.6969         calculate D2E/DX2 analytically  !
 ! A215  A(99,96,110)          108.3501         calculate D2E/DX2 analytically  !
 ! A216  A(86,98,97)           113.2869         calculate D2E/DX2 analytically  !
 ! A217  A(86,98,100)          108.1415         calculate D2E/DX2 analytically  !
 ! A218  A(86,98,113)          111.8371         calculate D2E/DX2 analytically  !
 ! A219  A(97,98,100)          107.0111         calculate D2E/DX2 analytically  !
 ! A220  A(97,98,113)          109.1897         calculate D2E/DX2 analytically  !
 ! A221  A(100,98,113)         107.0676         calculate D2E/DX2 analytically  !
 ! A222  A(81,101,102)         114.6193         calculate D2E/DX2 analytically  !
 ! A223  A(81,101,112)         124.4817         calculate D2E/DX2 analytically  !
 ! A224  A(102,101,112)        120.7209         calculate D2E/DX2 analytically  !
 ! A225  A(78,102,101)         115.9305         calculate D2E/DX2 analytically  !
 ! A226  A(78,102,111)         122.0683         calculate D2E/DX2 analytically  !
 ! A227  A(101,102,111)        121.9824         calculate D2E/DX2 analytically  !
 ! A228  A(91,103,93)          111.6867         calculate D2E/DX2 analytically  !
 ! A229  A(91,103,107)         108.6553         calculate D2E/DX2 analytically  !
 ! A230  A(91,103,109)         107.5778         calculate D2E/DX2 analytically  !
 ! A231  A(93,103,107)         112.1302         calculate D2E/DX2 analytically  !
 ! A232  A(93,103,109)         109.0056         calculate D2E/DX2 analytically  !
 ! A233  A(107,103,109)        107.6026         calculate D2E/DX2 analytically  !
 ! A234  A(87,108,111)         111.4833         calculate D2E/DX2 analytically  !
 ! A235  A(87,108,115)         104.7255         calculate D2E/DX2 analytically  !
 ! A236  A(87,108,116)         114.1085         calculate D2E/DX2 analytically  !
 ! A237  A(111,108,115)        107.3554         calculate D2E/DX2 analytically  !
 ! A238  A(111,108,116)        111.3232         calculate D2E/DX2 analytically  !
 ! A239  A(115,108,116)        107.3131         calculate D2E/DX2 analytically  !
 ! A240  A(102,111,108)        115.8318         calculate D2E/DX2 analytically  !
 ! A241  A(102,111,117)        120.0348         calculate D2E/DX2 analytically  !
 ! A242  A(108,111,117)        124.1193         calculate D2E/DX2 analytically  !
 ! A243  A(101,112,114)        120.2985         calculate D2E/DX2 analytically  !
 ! A244  A(101,112,118)        118.4791         calculate D2E/DX2 analytically  !
 ! A245  A(114,112,118)        121.2181         calculate D2E/DX2 analytically  !
 ! A246  A(111,117,118)        118.9489         calculate D2E/DX2 analytically  !
 ! A247  A(111,117,119)        120.0788         calculate D2E/DX2 analytically  !
 ! A248  A(118,117,119)        120.9715         calculate D2E/DX2 analytically  !
 ! A249  A(112,118,117)        119.8138         calculate D2E/DX2 analytically  !
 ! A250  A(112,118,120)        120.1438         calculate D2E/DX2 analytically  !
 ! A251  A(117,118,120)        120.0425         calculate D2E/DX2 analytically  !
 ! A252  A(8,121,68)           173.3429         calculate D2E/DX2 analytically  !
 ! A253  A(68,121,128)         154.6181         calculate D2E/DX2 analytically  !
 ! A254  L(6,20,44,8,-1)       170.6083         calculate D2E/DX2 analytically  !
 ! A255  L(8,20,37,6,-1)       177.3033         calculate D2E/DX2 analytically  !
 ! A256  L(20,37,63,3,-1)      174.8896         calculate D2E/DX2 analytically  !
 ! A257  L(68,78,95,69,-1)     173.0041         calculate D2E/DX2 analytically  !
 ! A258  L(69,78,102,68,-1)    158.3253         calculate D2E/DX2 analytically  !
 ! A259  L(78,95,122,5,-1)     177.5789         calculate D2E/DX2 analytically  !
 ! A260  L(6,20,44,8,-2)       181.1914         calculate D2E/DX2 analytically  !
 ! A261  L(8,20,37,6,-2)       173.6579         calculate D2E/DX2 analytically  !
 ! A262  L(20,37,63,3,-2)      180.7929         calculate D2E/DX2 analytically  !
 ! A263  L(68,78,95,69,-2)     169.2059         calculate D2E/DX2 analytically  !
 ! A264  L(69,78,102,68,-2)    154.4095         calculate D2E/DX2 analytically  !
 ! A265  L(78,95,122,5,-2)     177.515          calculate D2E/DX2 analytically  !
 ! D1    D(1,2,10,12)          -61.6499         calculate D2E/DX2 analytically  !
 ! D2    D(1,2,10,16)           55.9562         calculate D2E/DX2 analytically  !
 ! D3    D(1,2,10,22)          175.9506         calculate D2E/DX2 analytically  !
 ! D4    D(3,2,10,12)           57.2701         calculate D2E/DX2 analytically  !
 ! D5    D(3,2,10,16)          174.8761         calculate D2E/DX2 analytically  !
 ! D6    D(3,2,10,22)          -65.1294         calculate D2E/DX2 analytically  !
 ! D7    D(4,2,10,12)         -179.9331         calculate D2E/DX2 analytically  !
 ! D8    D(4,2,10,16)          -62.3271         calculate D2E/DX2 analytically  !
 ! D9    D(4,2,10,22)           57.6674         calculate D2E/DX2 analytically  !
 ! D10   D(20,6,9,14)         -103.1808         calculate D2E/DX2 analytically  !
 ! D11   D(20,6,9,66)          -46.8241         calculate D2E/DX2 analytically  !
 ! D12   D(9,6,20,8)           -17.6852         calculate D2E/DX2 analytically  !
 ! D13   D(9,6,20,29)           75.7473         calculate D2E/DX2 analytically  !
 ! D14   D(9,6,20,37)          168.6569         calculate D2E/DX2 analytically  !
 ! D15   D(9,6,44,43)          -75.8981         calculate D2E/DX2 analytically  !
 ! D16   D(9,6,44,53)           92.6241         calculate D2E/DX2 analytically  !
 ! D17   D(121,8,20,6)         -65.1657         calculate D2E/DX2 analytically  !
 ! D18   D(121,8,20,29)       -165.6227         calculate D2E/DX2 analytically  !
 ! D19   D(121,8,20,44)        113.643          calculate D2E/DX2 analytically  !
 ! D20   D(128,8,20,6)          32.935          calculate D2E/DX2 analytically  !
 ! D21   D(128,8,20,29)        -67.522          calculate D2E/DX2 analytically  !
 ! D22   D(128,8,20,44)       -148.2564         calculate D2E/DX2 analytically  !
 ! D23   D(20,8,121,68)       -118.1689         calculate D2E/DX2 analytically  !
 ! D24   D(6,9,14,17)          152.2044         calculate D2E/DX2 analytically  !
 ! D25   D(66,9,14,17)         -12.461          calculate D2E/DX2 analytically  !
 ! D26   D(6,9,66,69)          126.6393         calculate D2E/DX2 analytically  !
 ! D27   D(14,9,66,69)         172.2083         calculate D2E/DX2 analytically  !
 ! D28   D(2,10,22,23)        -179.6852         calculate D2E/DX2 analytically  !
 ! D29   D(2,10,22,35)          58.3683         calculate D2E/DX2 analytically  !
 ! D30   D(12,10,22,23)         56.6506         calculate D2E/DX2 analytically  !
 ! D31   D(12,10,22,35)        -65.2959         calculate D2E/DX2 analytically  !
 ! D32   D(16,10,22,23)        -57.2679         calculate D2E/DX2 analytically  !
 ! D33   D(16,10,22,35)       -179.2144         calculate D2E/DX2 analytically  !
 ! D34   D(5,13,24,27)          62.7035         calculate D2E/DX2 analytically  !
 ! D35   D(5,13,24,29)         -54.3277         calculate D2E/DX2 analytically  !
 ! D36   D(5,13,24,38)        -179.7981         calculate D2E/DX2 analytically  !
 ! D37   D(11,13,24,27)        -56.9949         calculate D2E/DX2 analytically  !
 ! D38   D(11,13,24,29)       -174.0261         calculate D2E/DX2 analytically  !
 ! D39   D(11,13,24,38)         60.5035         calculate D2E/DX2 analytically  !
 ! D40   D(15,13,24,27)       -175.0473         calculate D2E/DX2 analytically  !
 ! D41   D(15,13,24,29)         67.9215         calculate D2E/DX2 analytically  !
 ! D42   D(15,13,24,38)        -57.5489         calculate D2E/DX2 analytically  !
 ! D43   D(9,14,17,7)           18.6692         calculate D2E/DX2 analytically  !
 ! D44   D(9,14,17,18)         135.127          calculate D2E/DX2 analytically  !
 ! D45   D(9,14,17,28)        -103.8897         calculate D2E/DX2 analytically  !
 ! D46   D(7,17,28,29)         -62.7367         calculate D2E/DX2 analytically  !
 ! D47   D(7,17,28,31)          61.7006         calculate D2E/DX2 analytically  !
 ! D48   D(7,17,28,40)         178.7528         calculate D2E/DX2 analytically  !
 ! D49   D(14,17,28,29)         56.9482         calculate D2E/DX2 analytically  !
 ! D50   D(14,17,28,31)       -178.6145         calculate D2E/DX2 analytically  !
 ! D51   D(14,17,28,40)        -61.5622         calculate D2E/DX2 analytically  !
 ! D52   D(18,17,28,29)        178.2254         calculate D2E/DX2 analytically  !
 ! D53   D(18,17,28,31)        -57.3373         calculate D2E/DX2 analytically  !
 ! D54   D(18,17,28,40)         59.715          calculate D2E/DX2 analytically  !
 ! D55   D(6,20,29,24)         -89.4138         calculate D2E/DX2 analytically  !
 ! D56   D(6,20,29,28)          49.0893         calculate D2E/DX2 analytically  !
 ! D57   D(6,20,29,50)         162.1951         calculate D2E/DX2 analytically  !
 ! D58   D(8,20,29,24)          -2.2379         calculate D2E/DX2 analytically  !
 ! D59   D(8,20,29,28)         136.2651         calculate D2E/DX2 analytically  !
 ! D60   D(8,20,29,50)        -110.629          calculate D2E/DX2 analytically  !
 ! D61   D(37,20,29,24)        179.2451         calculate D2E/DX2 analytically  !
 ! D62   D(37,20,29,28)        -42.2518         calculate D2E/DX2 analytically  !
 ! D63   D(37,20,29,50)         70.854          calculate D2E/DX2 analytically  !
 ! D64   D(44,20,29,24)         81.173          calculate D2E/DX2 analytically  !
 ! D65   D(44,20,29,28)       -140.324          calculate D2E/DX2 analytically  !
 ! D66   D(44,20,29,50)        -27.2181         calculate D2E/DX2 analytically  !
 ! D67   D(8,20,44,43)         -60.658          calculate D2E/DX2 analytically  !
 ! D68   D(8,20,44,53)         112.1414         calculate D2E/DX2 analytically  !
 ! D69   D(29,20,44,43)       -155.6587         calculate D2E/DX2 analytically  !
 ! D70   D(29,20,44,53)         17.1407         calculate D2E/DX2 analytically  !
 ! D71   D(37,20,44,43)        112.8766         calculate D2E/DX2 analytically  !
 ! D72   D(37,20,44,53)        -74.3241         calculate D2E/DX2 analytically  !
 ! D73   D(10,22,23,19)         48.045          calculate D2E/DX2 analytically  !
 ! D74   D(10,22,23,30)        -69.7576         calculate D2E/DX2 analytically  !
 ! D75   D(10,22,23,43)        166.1956         calculate D2E/DX2 analytically  !
 ! D76   D(35,22,23,19)        171.1801         calculate D2E/DX2 analytically  !
 ! D77   D(35,22,23,30)         53.3775         calculate D2E/DX2 analytically  !
 ! D78   D(35,22,23,43)        -70.6693         calculate D2E/DX2 analytically  !
 ! D79   D(10,22,35,32)        -67.1821         calculate D2E/DX2 analytically  !
 ! D80   D(10,22,35,45)         55.7478         calculate D2E/DX2 analytically  !
 ! D81   D(10,22,35,47)        179.1283         calculate D2E/DX2 analytically  !
 ! D82   D(23,22,35,32)        171.4293         calculate D2E/DX2 analytically  !
 ! D83   D(23,22,35,45)        -65.6408         calculate D2E/DX2 analytically  !
 ! D84   D(23,22,35,47)         57.7396         calculate D2E/DX2 analytically  !
 ! D85   D(19,23,43,44)         84.5894         calculate D2E/DX2 analytically  !
 ! D86   D(19,23,43,54)        -93.0146         calculate D2E/DX2 analytically  !
 ! D87   D(22,23,43,44)        -32.1342         calculate D2E/DX2 analytically  !
 ! D88   D(22,23,43,54)        150.2618         calculate D2E/DX2 analytically  !
 ! D89   D(30,23,43,44)       -156.7375         calculate D2E/DX2 analytically  !
 ! D90   D(30,23,43,54)         25.6585         calculate D2E/DX2 analytically  !
 ! D91   D(13,24,27,21)        -66.4151         calculate D2E/DX2 analytically  !
 ! D92   D(13,24,27,25)         53.309          calculate D2E/DX2 analytically  !
 ! D93   D(13,24,27,46)        170.4419         calculate D2E/DX2 analytically  !
 ! D94   D(29,24,27,21)         51.3026         calculate D2E/DX2 analytically  !
 ! D95   D(29,24,27,25)        171.0267         calculate D2E/DX2 analytically  !
 ! D96   D(29,24,27,46)        -71.8404         calculate D2E/DX2 analytically  !
 ! D97   D(38,24,27,21)        174.0976         calculate D2E/DX2 analytically  !
 ! D98   D(38,24,27,25)        -66.1782         calculate D2E/DX2 analytically  !
 ! D99   D(38,24,27,46)         50.9547         calculate D2E/DX2 analytically  !
 ! D100  D(13,24,29,20)         75.4501         calculate D2E/DX2 analytically  !
 ! D101  D(13,24,29,28)        -65.2601         calculate D2E/DX2 analytically  !
 ! D102  D(13,24,29,50)        179.9489         calculate D2E/DX2 analytically  !
 ! D103  D(27,24,29,20)        -43.1334         calculate D2E/DX2 analytically  !
 ! D104  D(27,24,29,28)        176.1564         calculate D2E/DX2 analytically  !
 ! D105  D(27,24,29,50)         61.3654         calculate D2E/DX2 analytically  !
 ! D106  D(38,24,29,20)       -161.4077         calculate D2E/DX2 analytically  !
 ! D107  D(38,24,29,28)         57.8821         calculate D2E/DX2 analytically  !
 ! D108  D(38,24,29,50)        -56.9089         calculate D2E/DX2 analytically  !
 ! D109  D(13,24,38,36)        -70.197          calculate D2E/DX2 analytically  !
 ! D110  D(13,24,38,41)         48.3203         calculate D2E/DX2 analytically  !
 ! D111  D(13,24,38,52)        172.65           calculate D2E/DX2 analytically  !
 ! D112  D(27,24,38,36)         49.0627         calculate D2E/DX2 analytically  !
 ! D113  D(27,24,38,41)        167.58           calculate D2E/DX2 analytically  !
 ! D114  D(27,24,38,52)        -68.0903         calculate D2E/DX2 analytically  !
 ! D115  D(29,24,38,36)        167.5826         calculate D2E/DX2 analytically  !
 ! D116  D(29,24,38,41)        -73.9002         calculate D2E/DX2 analytically  !
 ! D117  D(29,24,38,52)         50.4296         calculate D2E/DX2 analytically  !
 ! D118  D(17,28,29,20)        -45.7906         calculate D2E/DX2 analytically  !
 ! D119  D(17,28,29,24)         95.9607         calculate D2E/DX2 analytically  !
 ! D120  D(17,28,29,50)       -152.1806         calculate D2E/DX2 analytically  !
 ! D121  D(31,28,29,20)       -166.3209         calculate D2E/DX2 analytically  !
 ! D122  D(31,28,29,24)        -24.5696         calculate D2E/DX2 analytically  !
 ! D123  D(31,28,29,50)         87.2891         calculate D2E/DX2 analytically  !
 ! D124  D(40,28,29,20)         72.8739         calculate D2E/DX2 analytically  !
 ! D125  D(40,28,29,24)       -145.3748         calculate D2E/DX2 analytically  !
 ! D126  D(40,28,29,50)        -33.5161         calculate D2E/DX2 analytically  !
 ! D127  D(17,28,31,26)        -55.3081         calculate D2E/DX2 analytically  !
 ! D128  D(17,28,31,34)         62.6541         calculate D2E/DX2 analytically  !
 ! D129  D(17,28,31,48)       -179.1372         calculate D2E/DX2 analytically  !
 ! D130  D(29,28,31,26)         63.225          calculate D2E/DX2 analytically  !
 ! D131  D(29,28,31,34)       -178.8128         calculate D2E/DX2 analytically  !
 ! D132  D(29,28,31,48)        -60.6041         calculate D2E/DX2 analytically  !
 ! D133  D(40,28,31,26)       -174.3677         calculate D2E/DX2 analytically  !
 ! D134  D(40,28,31,34)        -56.4054         calculate D2E/DX2 analytically  !
 ! D135  D(40,28,31,48)         61.8032         calculate D2E/DX2 analytically  !
 ! D136  D(17,28,40,39)         62.9156         calculate D2E/DX2 analytically  !
 ! D137  D(17,28,40,42)        -55.6118         calculate D2E/DX2 analytically  !
 ! D138  D(17,28,40,55)       -173.1555         calculate D2E/DX2 analytically  !
 ! D139  D(29,28,40,39)        -52.9081         calculate D2E/DX2 analytically  !
 ! D140  D(29,28,40,42)       -171.4356         calculate D2E/DX2 analytically  !
 ! D141  D(29,28,40,55)         71.0208         calculate D2E/DX2 analytically  !
 ! D142  D(31,28,40,39)       -178.629          calculate D2E/DX2 analytically  !
 ! D143  D(31,28,40,42)         62.8436         calculate D2E/DX2 analytically  !
 ! D144  D(31,28,40,55)        -54.7001         calculate D2E/DX2 analytically  !
 ! D145  D(20,29,50,53)         39.4851         calculate D2E/DX2 analytically  !
 ! D146  D(20,29,50,57)        -76.9662         calculate D2E/DX2 analytically  !
 ! D147  D(20,29,50,58)        165.113          calculate D2E/DX2 analytically  !
 ! D148  D(24,29,50,53)        -82.4715         calculate D2E/DX2 analytically  !
 ! D149  D(24,29,50,57)        161.0772         calculate D2E/DX2 analytically  !
 ! D150  D(24,29,50,58)         43.1564         calculate D2E/DX2 analytically  !
 ! D151  D(28,29,50,53)        160.17           calculate D2E/DX2 analytically  !
 ! D152  D(28,29,50,57)         43.7187         calculate D2E/DX2 analytically  !
 ! D153  D(28,29,50,58)        -74.2021         calculate D2E/DX2 analytically  !
 ! D154  D(22,35,45,33)        -62.9233         calculate D2E/DX2 analytically  !
 ! D155  D(22,35,45,49)         59.87           calculate D2E/DX2 analytically  !
 ! D156  D(22,35,45,51)        178.5432         calculate D2E/DX2 analytically  !
 ! D157  D(32,35,45,33)         58.9373         calculate D2E/DX2 analytically  !
 ! D158  D(32,35,45,49)       -178.2694         calculate D2E/DX2 analytically  !
 ! D159  D(32,35,45,51)        -59.5961         calculate D2E/DX2 analytically  !
 ! D160  D(47,35,45,33)        175.3148         calculate D2E/DX2 analytically  !
 ! D161  D(47,35,45,49)        -61.8919         calculate D2E/DX2 analytically  !
 ! D162  D(47,35,45,51)         56.7814         calculate D2E/DX2 analytically  !
 ! D163  D(23,43,44,20)         -3.8263         calculate D2E/DX2 analytically  !
 ! D164  D(23,43,44,53)       -176.7032         calculate D2E/DX2 analytically  !
 ! D165  D(54,43,44,20)        173.8679         calculate D2E/DX2 analytically  !
 ! D166  D(54,43,44,53)          0.991          calculate D2E/DX2 analytically  !
 ! D167  D(23,43,54,56)         -2.7725         calculate D2E/DX2 analytically  !
 ! D168  D(23,43,54,60)        176.7279         calculate D2E/DX2 analytically  !
 ! D169  D(44,43,54,56)        179.7459         calculate D2E/DX2 analytically  !
 ! D170  D(44,43,54,60)         -0.7538         calculate D2E/DX2 analytically  !
 ! D171  D(20,44,53,50)          6.4471         calculate D2E/DX2 analytically  !
 ! D172  D(20,44,53,59)       -173.1021         calculate D2E/DX2 analytically  !
 ! D173  D(43,44,53,50)        178.8404         calculate D2E/DX2 analytically  !
 ! D174  D(43,44,53,59)         -0.7088         calculate D2E/DX2 analytically  !
 ! D175  D(29,50,53,44)        -33.4742         calculate D2E/DX2 analytically  !
 ! D176  D(29,50,53,59)        146.0563         calculate D2E/DX2 analytically  !
 ! D177  D(57,50,53,44)         80.9944         calculate D2E/DX2 analytically  !
 ! D178  D(57,50,53,59)        -99.4752         calculate D2E/DX2 analytically  !
 ! D179  D(58,50,53,44)       -160.5289         calculate D2E/DX2 analytically  !
 ! D180  D(58,50,53,59)         19.0016         calculate D2E/DX2 analytically  !
 ! D181  D(44,53,59,60)          0.201          calculate D2E/DX2 analytically  !
 ! D182  D(44,53,59,61)        179.74           calculate D2E/DX2 analytically  !
 ! D183  D(50,53,59,60)       -179.3082         calculate D2E/DX2 analytically  !
 ! D184  D(50,53,59,61)          0.2309         calculate D2E/DX2 analytically  !
 ! D185  D(43,54,60,59)          0.2567         calculate D2E/DX2 analytically  !
 ! D186  D(43,54,60,62)       -179.657          calculate D2E/DX2 analytically  !
 ! D187  D(56,54,60,59)        179.7498         calculate D2E/DX2 analytically  !
 ! D188  D(56,54,60,62)         -0.1639         calculate D2E/DX2 analytically  !
 ! D189  D(53,59,60,54)          0.0121         calculate D2E/DX2 analytically  !
 ! D190  D(53,59,60,62)        179.9259         calculate D2E/DX2 analytically  !
 ! D191  D(61,59,60,54)       -179.521          calculate D2E/DX2 analytically  !
 ! D192  D(61,59,60,62)          0.3928         calculate D2E/DX2 analytically  !
 ! D193  D(123,64,70,80)       178.525          calculate D2E/DX2 analytically  !
 ! D194  D(123,64,70,126)      -59.5687         calculate D2E/DX2 analytically  !
 ! D195  D(123,64,70,127)       56.6681         calculate D2E/DX2 analytically  !
 ! D196  D(124,64,70,80)        59.2392         calculate D2E/DX2 analytically  !
 ! D197  D(124,64,70,126)     -178.8545         calculate D2E/DX2 analytically  !
 ! D198  D(124,64,70,127)      -62.6177         calculate D2E/DX2 analytically  !
 ! D199  D(125,64,70,80)       -63.3735         calculate D2E/DX2 analytically  !
 ! D200  D(125,64,70,126)       58.5328         calculate D2E/DX2 analytically  !
 ! D201  D(125,64,70,127)      174.7696         calculate D2E/DX2 analytically  !
 ! D202  D(9,66,69,73)         158.8503         calculate D2E/DX2 analytically  !
 ! D203  D(9,66,69,78)        -124.5745         calculate D2E/DX2 analytically  !
 ! D204  D(121,68,78,69)       -41.0169         calculate D2E/DX2 analytically  !
 ! D205  D(121,68,78,87)      -113.8619         calculate D2E/DX2 analytically  !
 ! D206  D(121,68,78,102)      164.5737         calculate D2E/DX2 analytically  !
 ! D207  D(78,68,121,8)        -97.9113         calculate D2E/DX2 analytically  !
 ! D208  D(78,68,121,128)       27.2587         calculate D2E/DX2 analytically  !
 ! D209  D(66,69,73,75)        -90.2933         calculate D2E/DX2 analytically  !
 ! D210  D(78,69,73,75)        115.6585         calculate D2E/DX2 analytically  !
 ! D211  D(66,69,78,68)        107.3176         calculate D2E/DX2 analytically  !
 ! D212  D(66,69,78,87)       -149.5845         calculate D2E/DX2 analytically  !
 ! D213  D(66,69,78,95)        -61.8884         calculate D2E/DX2 analytically  !
 ! D214  D(73,69,78,68)       -168.173          calculate D2E/DX2 analytically  !
 ! D215  D(73,69,78,87)        -65.0751         calculate D2E/DX2 analytically  !
 ! D216  D(73,69,78,95)         22.621          calculate D2E/DX2 analytically  !
 ! D217  D(66,69,102,101)       35.7326         calculate D2E/DX2 analytically  !
 ! D218  D(66,69,102,111)     -164.7285         calculate D2E/DX2 analytically  !
 ! D219  D(73,69,102,101)      138.452          calculate D2E/DX2 analytically  !
 ! D220  D(73,69,102,111)      -62.0091         calculate D2E/DX2 analytically  !
 ! D221  D(64,70,80,81)         59.08           calculate D2E/DX2 analytically  !
 ! D222  D(64,70,80,93)        -62.742          calculate D2E/DX2 analytically  !
 ! D223  D(126,70,80,81)       -64.9718         calculate D2E/DX2 analytically  !
 ! D224  D(126,70,80,93)       173.2063         calculate D2E/DX2 analytically  !
 ! D225  D(127,70,80,81)      -177.272          calculate D2E/DX2 analytically  !
 ! D226  D(127,70,80,93)        60.9061         calculate D2E/DX2 analytically  !
 ! D227  D(65,72,82,85)         54.2577         calculate D2E/DX2 analytically  !
 ! D228  D(65,72,82,87)        -60.8882         calculate D2E/DX2 analytically  !
 ! D229  D(65,72,82,96)        171.9348         calculate D2E/DX2 analytically  !
 ! D230  D(71,72,82,85)        -64.8043         calculate D2E/DX2 analytically  !
 ! D231  D(71,72,82,87)       -179.9502         calculate D2E/DX2 analytically  !
 ! D232  D(71,72,82,96)         52.8728         calculate D2E/DX2 analytically  !
 ! D233  D(74,72,82,85)        175.8803         calculate D2E/DX2 analytically  !
 ! D234  D(74,72,82,87)         60.7344         calculate D2E/DX2 analytically  !
 ! D235  D(74,72,82,96)        -66.4426         calculate D2E/DX2 analytically  !
 ! D236  D(69,73,75,67)         21.1158         calculate D2E/DX2 analytically  !
 ! D237  D(69,73,75,76)        137.3367         calculate D2E/DX2 analytically  !
 ! D238  D(69,73,75,86)       -102.7221         calculate D2E/DX2 analytically  !
 ! D239  D(67,75,86,87)        -59.1316         calculate D2E/DX2 analytically  !
 ! D240  D(67,75,86,89)         65.7494         calculate D2E/DX2 analytically  !
 ! D241  D(67,75,86,98)       -177.6824         calculate D2E/DX2 analytically  !
 ! D242  D(73,75,86,87)         61.3039         calculate D2E/DX2 analytically  !
 ! D243  D(73,75,86,89)       -173.8151         calculate D2E/DX2 analytically  !
 ! D244  D(73,75,86,98)        -57.2469         calculate D2E/DX2 analytically  !
 ! D245  D(76,75,86,87)       -179.0425         calculate D2E/DX2 analytically  !
 ! D246  D(76,75,86,89)        -54.1615         calculate D2E/DX2 analytically  !
 ! D247  D(76,75,86,98)         62.4067         calculate D2E/DX2 analytically  !
 ! D248  D(68,78,87,82)         -3.0764         calculate D2E/DX2 analytically  !
 ! D249  D(68,78,87,86)        137.046          calculate D2E/DX2 analytically  !
 ! D250  D(68,78,87,108)      -110.9377         calculate D2E/DX2 analytically  !
 ! D251  D(69,78,87,82)        -70.5118         calculate D2E/DX2 analytically  !
 ! D252  D(69,78,87,86)         69.6107         calculate D2E/DX2 analytically  !
 ! D253  D(69,78,87,108)      -178.373          calculate D2E/DX2 analytically  !
 ! D254  D(95,78,87,82)       -173.6009         calculate D2E/DX2 analytically  !
 ! D255  D(95,78,87,86)        -33.4784         calculate D2E/DX2 analytically  !
 ! D256  D(95,78,87,108)        78.5379         calculate D2E/DX2 analytically  !
 ! D257  D(102,78,87,82)        84.0609         calculate D2E/DX2 analytically  !
 ! D258  D(102,78,87,86)      -135.8166         calculate D2E/DX2 analytically  !
 ! D259  D(102,78,87,108)      -23.8003         calculate D2E/DX2 analytically  !
 ! D260  D(68,78,102,101)      -63.9281         calculate D2E/DX2 analytically  !
 ! D261  D(68,78,102,111)      114.5268         calculate D2E/DX2 analytically  !
 ! D262  D(87,78,102,101)     -161.6482         calculate D2E/DX2 analytically  !
 ! D263  D(87,78,102,111)       16.8068         calculate D2E/DX2 analytically  !
 ! D264  D(95,78,102,101)      109.3375         calculate D2E/DX2 analytically  !
 ! D265  D(95,78,102,111)      -72.2076         calculate D2E/DX2 analytically  !
 ! D266  D(70,80,81,77)         48.4681         calculate D2E/DX2 analytically  !
 ! D267  D(70,80,81,88)        -71.8535         calculate D2E/DX2 analytically  !
 ! D268  D(70,80,81,101)       163.4079         calculate D2E/DX2 analytically  !
 ! D269  D(93,80,81,77)        172.693          calculate D2E/DX2 analytically  !
 ! D270  D(93,80,81,88)         52.3715         calculate D2E/DX2 analytically  !
 ! D271  D(93,80,81,101)       -72.3672         calculate D2E/DX2 analytically  !
 ! D272  D(70,80,93,90)       -168.8496         calculate D2E/DX2 analytically  !
 ! D273  D(70,80,93,103)       -46.8002         calculate D2E/DX2 analytically  !
 ! D274  D(70,80,93,105)        76.2435         calculate D2E/DX2 analytically  !
 ! D275  D(81,80,93,90)         68.5157         calculate D2E/DX2 analytically  !
 ! D276  D(81,80,93,103)      -169.4349         calculate D2E/DX2 analytically  !
 ! D277  D(81,80,93,105)       -46.3911         calculate D2E/DX2 analytically  !
 ! D278  D(77,81,101,102)       75.6367         calculate D2E/DX2 analytically  !
 ! D279  D(77,81,101,112)      -99.5261         calculate D2E/DX2 analytically  !
 ! D280  D(80,81,101,102)      -38.9254         calculate D2E/DX2 analytically  !
 ! D281  D(80,81,101,112)      145.9118         calculate D2E/DX2 analytically  !
 ! D282  D(88,81,101,102)     -164.5015         calculate D2E/DX2 analytically  !
 ! D283  D(88,81,101,112)       20.3357         calculate D2E/DX2 analytically  !
 ! D284  D(72,82,85,79)        -61.9345         calculate D2E/DX2 analytically  !
 ! D285  D(72,82,85,83)         57.3459         calculate D2E/DX2 analytically  !
 ! D286  D(72,82,85,104)       174.4686         calculate D2E/DX2 analytically  !
 ! D287  D(87,82,85,79)         53.8536         calculate D2E/DX2 analytically  !
 ! D288  D(87,82,85,83)        173.134          calculate D2E/DX2 analytically  !
 ! D289  D(87,82,85,104)       -69.7432         calculate D2E/DX2 analytically  !
 ! D290  D(96,82,85,79)        178.5563         calculate D2E/DX2 analytically  !
 ! D291  D(96,82,85,83)        -62.1633         calculate D2E/DX2 analytically  !
 ! D292  D(96,82,85,104)        54.9594         calculate D2E/DX2 analytically  !
 ! D293  D(72,82,87,78)         73.1899         calculate D2E/DX2 analytically  !
 ! D294  D(72,82,87,86)        -70.5116         calculate D2E/DX2 analytically  !
 ! D295  D(72,82,87,108)       178.7548         calculate D2E/DX2 analytically  !
 ! D296  D(85,82,87,78)        -43.5983         calculate D2E/DX2 analytically  !
 ! D297  D(85,82,87,86)        172.7001         calculate D2E/DX2 analytically  !
 ! D298  D(85,82,87,108)        61.9665         calculate D2E/DX2 analytically  !
 ! D299  D(96,82,87,78)       -162.9364         calculate D2E/DX2 analytically  !
 ! D300  D(96,82,87,86)         53.362          calculate D2E/DX2 analytically  !
 ! D301  D(96,82,87,108)       -57.3715         calculate D2E/DX2 analytically  !
 ! D302  D(72,82,96,94)        -72.611          calculate D2E/DX2 analytically  !
 ! D303  D(72,82,96,99)         46.0448         calculate D2E/DX2 analytically  !
 ! D304  D(72,82,96,110)       169.8706         calculate D2E/DX2 analytically  !
 ! D305  D(85,82,96,94)         46.0842         calculate D2E/DX2 analytically  !
 ! D306  D(85,82,96,99)        164.74           calculate D2E/DX2 analytically  !
 ! D307  D(85,82,96,110)       -71.4342         calculate D2E/DX2 analytically  !
 ! D308  D(87,82,96,94)        164.9655         calculate D2E/DX2 analytically  !
 ! D309  D(87,82,96,99)        -76.3786         calculate D2E/DX2 analytically  !
 ! D310  D(87,82,96,110)        47.4471         calculate D2E/DX2 analytically  !
 ! D311  D(75,86,87,78)        -42.5144         calculate D2E/DX2 analytically  !
 ! D312  D(75,86,87,82)        100.0359         calculate D2E/DX2 analytically  !
 ! D313  D(75,86,87,108)      -150.9626         calculate D2E/DX2 analytically  !
 ! D314  D(89,86,87,78)       -163.0909         calculate D2E/DX2 analytically  !
 ! D315  D(89,86,87,82)        -20.5407         calculate D2E/DX2 analytically  !
 ! D316  D(89,86,87,108)        88.4608         calculate D2E/DX2 analytically  !
 ! D317  D(98,86,87,78)         75.5623         calculate D2E/DX2 analytically  !
 ! D318  D(98,86,87,82)       -141.8875         calculate D2E/DX2 analytically  !
 ! D319  D(98,86,87,108)       -32.886          calculate D2E/DX2 analytically  !
 ! D320  D(75,86,89,84)        -56.1082         calculate D2E/DX2 analytically  !
 ! D321  D(75,86,89,92)         61.912          calculate D2E/DX2 analytically  !
 ! D322  D(75,86,89,106)      -179.683          calculate D2E/DX2 analytically  !
 ! D323  D(87,86,89,84)         63.1918         calculate D2E/DX2 analytically  !
 ! D324  D(87,86,89,92)       -178.788          calculate D2E/DX2 analytically  !
 ! D325  D(87,86,89,106)       -60.3829         calculate D2E/DX2 analytically  !
 ! D326  D(98,86,89,84)       -173.9825         calculate D2E/DX2 analytically  !
 ! D327  D(98,86,89,92)        -55.9623         calculate D2E/DX2 analytically  !
 ! D328  D(98,86,89,106)        62.4428         calculate D2E/DX2 analytically  !
 ! D329  D(75,86,98,97)         65.7899         calculate D2E/DX2 analytically  !
 ! D330  D(75,86,98,100)       -52.6466         calculate D2E/DX2 analytically  !
 ! D331  D(75,86,98,113)      -170.2938         calculate D2E/DX2 analytically  !
 ! D332  D(87,86,98,97)        -50.4889         calculate D2E/DX2 analytically  !
 ! D333  D(87,86,98,100)      -168.9254         calculate D2E/DX2 analytically  !
 ! D334  D(87,86,98,113)        73.4274         calculate D2E/DX2 analytically  !
 ! D335  D(89,86,98,97)       -176.694          calculate D2E/DX2 analytically  !
 ! D336  D(89,86,98,100)        64.8695         calculate D2E/DX2 analytically  !
 ! D337  D(89,86,98,113)       -52.7777         calculate D2E/DX2 analytically  !
 ! D338  D(78,87,108,111)       33.7875         calculate D2E/DX2 analytically  !
 ! D339  D(78,87,108,115)      -81.9911         calculate D2E/DX2 analytically  !
 ! D340  D(78,87,108,116)      160.9622         calculate D2E/DX2 analytically  !
 ! D341  D(82,87,108,111)      -86.6101         calculate D2E/DX2 analytically  !
 ! D342  D(82,87,108,115)      157.6113         calculate D2E/DX2 analytically  !
 ! D343  D(82,87,108,116)       40.5646         calculate D2E/DX2 analytically  !
 ! D344  D(86,87,108,111)      158.0054         calculate D2E/DX2 analytically  !
 ! D345  D(86,87,108,115)       42.2268         calculate D2E/DX2 analytically  !
 ! D346  D(86,87,108,116)      -74.8199         calculate D2E/DX2 analytically  !
 ! D347  D(80,93,103,91)       -49.8488         calculate D2E/DX2 analytically  !
 ! D348  D(80,93,103,107)       72.3828         calculate D2E/DX2 analytically  !
 ! D349  D(80,93,103,109)     -168.5812         calculate D2E/DX2 analytically  !
 ! D350  D(90,93,103,91)        70.252          calculate D2E/DX2 analytically  !
 ! D351  D(90,93,103,107)     -167.5164         calculate D2E/DX2 analytically  !
 ! D352  D(90,93,103,109)      -48.4804         calculate D2E/DX2 analytically  !
 ! D353  D(105,93,103,91)     -172.8605         calculate D2E/DX2 analytically  !
 ! D354  D(105,93,103,107)     -50.6289         calculate D2E/DX2 analytically  !
 ! D355  D(105,93,103,109)      68.4071         calculate D2E/DX2 analytically  !
 ! D356  D(81,101,102,78)        4.5689         calculate D2E/DX2 analytically  !
 ! D357  D(81,101,102,111)    -173.8875         calculate D2E/DX2 analytically  !
 ! D358  D(112,101,102,78)     179.9311         calculate D2E/DX2 analytically  !
 ! D359  D(112,101,102,111)      1.4747         calculate D2E/DX2 analytically  !
 ! D360  D(81,101,112,114)      -5.8493         calculate D2E/DX2 analytically  !
 ! D361  D(81,101,112,118)     173.4008         calculate D2E/DX2 analytically  !
 ! D362  D(102,101,112,114)    179.2668         calculate D2E/DX2 analytically  !
 ! D363  D(102,101,112,118)     -1.4831         calculate D2E/DX2 analytically  !
 ! D364  D(78,102,111,108)       2.6131         calculate D2E/DX2 analytically  !
 ! D365  D(78,102,111,117)    -178.7007         calculate D2E/DX2 analytically  !
 ! D366  D(101,102,111,108)   -179.0251         calculate D2E/DX2 analytically  !
 ! D367  D(101,102,111,117)     -0.339          calculate D2E/DX2 analytically  !
 ! D368  D(87,108,111,102)     -26.299          calculate D2E/DX2 analytically  !
 ! D369  D(87,108,111,117)     155.0749         calculate D2E/DX2 analytically  !
 ! D370  D(115,108,111,102)     87.8555         calculate D2E/DX2 analytically  !
 ! D371  D(115,108,111,117)    -90.7706         calculate D2E/DX2 analytically  !
 ! D372  D(116,108,111,102)   -154.9704         calculate D2E/DX2 analytically  !
 ! D373  D(116,108,111,117)     26.4035         calculate D2E/DX2 analytically  !
 ! D374  D(102,111,117,118)     -0.7375         calculate D2E/DX2 analytically  !
 ! D375  D(102,111,117,119)    179.5957         calculate D2E/DX2 analytically  !
 ! D376  D(108,111,117,118)    177.834          calculate D2E/DX2 analytically  !
 ! D377  D(108,111,117,119)     -1.8327         calculate D2E/DX2 analytically  !
 ! D378  D(101,112,118,117)      0.4046         calculate D2E/DX2 analytically  !
 ! D379  D(101,112,118,120)   -179.5682         calculate D2E/DX2 analytically  !
 ! D380  D(114,112,118,117)    179.6475         calculate D2E/DX2 analytically  !
 ! D381  D(114,112,118,120)     -0.3253         calculate D2E/DX2 analytically  !
 ! D382  D(111,117,118,112)      0.6763         calculate D2E/DX2 analytically  !
 ! D383  D(111,117,118,120)   -179.3509         calculate D2E/DX2 analytically  !
 ! D384  D(119,117,118,112)   -179.66           calculate D2E/DX2 analytically  !
 ! D385  D(119,117,118,120)      0.3128         calculate D2E/DX2 analytically  !
 --------------------------------------------------------------------------------
 Trust Radius=3.00D-01 FncErr=1.00D-07 GrdErr=1.00D-07 EigMax=2.50D+02 EigMin=1.00D-04
 Number of steps in this run=      2 maximum allowed number of steps=      2.
 GradGradGradGradGradGradGradGradGradGradGradGradGradGradGradGradGradGrad

 Stoichiometry    C40H74N4O6P2Ru2(3)
 Framework group  C1[X(C40H74N4O6P2Ru2)]
 Deg. of freedom   378
 Full point group                 C1      NOp   1
 Largest Abelian subgroup         C1      NOp   1
 Largest concise Abelian subgroup C1      NOp   1
                         Standard orientation:                         
 ---------------------------------------------------------------------
 Center     Atomic      Atomic             Coordinates (Angstroms)
 Number     Number       Type             X           Y           Z
 ---------------------------------------------------------------------
      1          1           0       -0.032708    1.604177    4.137174
      2          6           0        0.939032    1.192943    3.830385
      3          1           0        1.557565    1.106767    4.737348
      4          1           0        1.409312    1.906774    3.134564
      5          1           0        1.466672    1.598483   -2.339176
      6          8           0        1.967145    2.119663    1.025466
      7          1           0        3.263696    3.589763   -1.405321
      8          8           0        1.137210   -0.215118   -0.120883
      9          1           0        0.670132    2.313043   -0.017131
     10          6           0        0.705137   -0.132615    3.141363
     11          1           0        1.650718    1.135624   -4.047357
     12          1           0        0.231838   -0.857387    3.830738
     13          6           0        2.203388    1.429827   -3.139294
     14          1           0        3.782325    3.292630    0.253628
     15          1           0        2.692524    2.391378   -3.355407
     16          1           0        0.012086   -0.019858    2.296215
     17          6           0        4.151429    3.477386   -0.765385
     18          1           0        4.707690    4.429224   -0.785393
     19          1           0        0.744423   -1.814537    1.291011
     20         44           0        2.843445    0.418585    0.844641
     21          1           0        1.841305   -0.997927   -1.752213
     22          7           0        1.945413   -0.738079    2.597155
     23          6           0        1.608936   -2.017740    1.941995
     24          6           0        3.219169    0.334526   -2.808322
     25          1           0        1.888859   -1.179279   -3.541470
     26          1           0        4.745932    2.900457   -3.371962
     27          6           0        2.497513   -1.009075   -2.637145
     28          6           0        5.069923    2.356828   -1.266356
     29         15           0        4.039374    0.756141   -1.140193
     30          1           0        1.314152   -2.784819    2.676870
     31          6           0        5.565790    2.704219   -2.669780
     32          1           0        3.294195    0.024625    4.001803
     33          1           0        1.720244   -1.329903    5.416481
     34          1           0        6.159479    3.630554   -2.597463
     35          6           0        2.964898   -0.961229    3.653935
     36          1           0        3.658649   -0.290090   -4.806196
     37          6           0        4.239933    0.997653    1.886907
     38          6           0        4.209260    0.165118   -3.966459
     39          1           0        6.079362    1.980174    0.665167
     40          6           0        6.306869    2.250949   -0.370994
     41          1           0        4.632285    1.106368   -4.329610
     42          1           0        6.794481    3.239214   -0.344678
     43          6           0        2.745004   -2.507917    1.093364
     44          7           0        3.494273   -1.545320    0.525917
     45          6           0        2.536352   -1.799305    4.848800
     46          1           0        3.210375   -1.845411   -2.566234
     47          1           0        3.835164   -1.423268    3.164405
     48          1           0        6.220028    1.927610   -3.090936
     49          1           0        2.221043   -2.816461    4.572773
     50          6           0        5.236080   -0.668378   -0.890738
[...]
 00000356,0.00002221,0.00007314,-0.00011270,0.00035066,-0.00021358,0.00
 020892,-0.00000419,-0.00000287,-0.00000263,0.00017736,-0.00014637,0.00
 007277,0.00019199,0.00012924,0.00011363,0.00000024,-0.00000027,0.00000
 273,-0.00002907,0.00103201,-0.00040000,-0.00000285,0.00000391,0.000004
 76,0.00009744,0.00042957,0.00013570,0.00001136,0.00001402,-0.00000156,
 -0.00000158,-0.00000155,0.00000161,0.00000304,0.00000316,0.00000359,0.
 00000072,-0.00000007,-0.00000063,-0.00000183,-0.00000133,0.00000120,0.
 00004095,0.00001736,0.00034509,-0.00009262,0.00008927,-0.00013825,-0.0
 0057626,0.00013610,0.00061181,-0.00000268,-0.00000141,-0.00000396,-0.0
 0004869,-0.00007723,0.00009325,-0.00000073,0.00000173,0.00000096,-0.00
 025790,-0.00082496,-0.00086164,-0.00002892,0.00003387,0.00003295,0.000
 50571,-0.00009603,-0.00004429,-0.00000264,-0.00000086,-0.00000155,-0.0
 0003022,-0.00000470,0.00002000,0.00011960,-0.00006752,-0.00005639,-0.0
 0000164,0.00000106,-0.00000147,0.00000257,0.00001904,-0.00001156,0.000
 00752,-0.00000649,0.00000558,-0.00002157,0.00000771,-0.00001414,0.0000
 1009,0.00000370,-0.00001296,-0.00001898,-0.00001542,0.00000684,0.00000
 042,0.00000525,0.00000099,0.00001237,0.00000206,-0.00000031,0.00011552
 ,-0.00014896,0.00020483,-0.00006948,-0.00029387,-0.00012829,-0.0001059
 5,-0.00024576,0.00107180,-0.00081606,-0.00005555,0.00082022,0.00293860
 ,0.00017283,-0.00513062,0.00293116,-0.01740464,0.00750704,0.00984897,-
 0.10164580,0.09061099,-0.00004398,0.00010587,0.00004638,-0.00006303,0.
 00003726,0.00004399,-0.00001577,-0.00002019,0.00000890,0.00007236,-0.0
 0005121,-0.00004057,0.00164587,0.00017556,-0.00104579,0.00007753,0.000
 03141,0.00106263,0.00003481,-0.00002438,-0.00006093,-0.10771105,-0.125
 83289,0.12482286,0.00557072,0.00285803,0.00157669,0.00036211,-0.000022
 99,-0.00030427,0.00015187,-0.00031944,-0.00008044,-0.00008846,0.000095
 84,0.00001742,-0.00074530,0.00030940,0.00043056,0.00000873,0.00004435,
 -0.00003304,0.00011840,-0.00028998,0.00000532,0.00036945,0.00007863,-0
 .00009274,0.00007820,0.00001379,0.00005083,0.00002338,-0.00002327,0.00
 004409,0.00032269,-0.00148619,0.00082447,-0.01450610,-0.01364953,0.009
 09386,-0.00079906,0.00090562,0.00160726,-0.00057010,0.00095081,-0.0006
 2546,0.00031960,0.00148336,-0.00063256,-0.00054996,0.00060002,0.000128
 83,0.00003218,-0.00024996,-0.00008423,-0.00000671,0.00000087,-0.000033
 97,0.00036511,0.00030576,-0.00027431,0.00010971,-0.00009257,-0.0002360
 0,-0.00198530,0.00045866,-0.00023854,0.00030542,0.00026708,0.00000954,
 0.00003319,0.00003174,0.00013074,0.00010493,-0.00007254,0.00003498,-0.
 00002739,0.00003120,0.00000695,0.00004241,-0.00003859,0.00004674,-0.00
 029637,-0.00014517,0.00001329,-0.00000257,-0.00000900,-0.00002326,-0.0
 0040683,0.00170155,-0.00528070,-0.00002868,-0.00005521,0.00012625,-0.0
 0001508,0.00003828,-0.00003056,-0.00003179,-0.00004365,0.00011837,0.00
 005343,-0.00007716,0.00002470,0.00004797,0.00000189,0.00004441,-0.0004
 5641,0.00041046,0.00000375,-0.00075441,-0.00044976,0.00014901,0.000076
 60,0.00005329,-0.00003685,0.00022011,-0.00033356,-0.00014097,-0.000045
 72,0.00000103,0.00003699,-0.00001864,0.00000693,-0.00001106,-0.0000083
 3,-0.00000369,0.00001971,0.00018654,-0.00014006,0.00002803,0.00001285,
 0.00004912,0.00001417,0.00000434,0.00000705,-0.00000911,0.00021499,-0.
 00031759,-0.00007787,0.00006038,-0.00009268,-0.00004357,-0.00001808,-0
 .00000354,-0.00000952,-0.00000056,0.00002058,0.00001305,-0.00000543,0.
 00003889,-0.00001583,0.00004778,0.00002541,-0.00008125,0.00002708,0.00
 000941,0.00008013,-0.00005470,0.00003939,-0.00004908,0.00000404,0.0000
 0270,0.00002144,0.00001105,-0.00000596,-0.00001764,0.00044940,-0.00031
 091,0.00221074,-0.00003661,-0.00001861,0.00005075,0.00004613,0.0003155
 6,-0.00001815,-0.00236900,-0.00025608,-0.00654706,-0.00027336,0.000079
 81,0.00024585,-0.00141288,-0.00137537,0.00110765,-0.00587945,0.0009391
 5,0.00437283,0.00006492,-0.00007565,-0.00011690,0.00009630,-0.00014243
 ,-0.00008323,-0.00009570,-0.00001935,0.00010269,-0.00002264,-0.0000804
 1,-0.00001188,-0.00005663,0.00002261,0.00008996,-0.00004958,-0.0001388
 9,-0.00007322,0.00009518,0.00003726,-0.00004021,0.00004024,0.00001240,
 -0.00014069,0.00013406,0.00057477,-0.00062100,-0.00005395,0.00012821,0
 .00006162,-0.00040786,0.00003044,0.00029964,-0.00004892,0.00003139,0.0
 0001722,0.00005720,-0.00004586,-0.00010252,0.00000359,-0.00007734,-0.0
 0004795,-0.00002449,0.00001226,0.00002028,0.00005420,0.00001774,-0.000
 03491,0.00005906,0.00002884,-0.00007468,-0.00028330,0.00037219,0.00010
 424,0.00003858,0.00000451,0.00009811,0.00003032,0.00003275,0.00001719,
 -0.00005742,-0.00002672,-0.00004100,0.00005046,-0.00003174,-0.00003054
 ,0.00000741,0.00001548,-0.00003092,-0.00014020,-0.00005860,-0.00006114
 ,0.00000066,-0.00005081,-0.00002215,-0.00051436,-0.00093537,-0.0002537
 8,-0.00001803,-0.00004135,0.00004425,-0.00002628,-0.00000513,0.0000113
 6,0.00002042,-0.00006324,-0.00002248,-0.00000419,0.00001973,-0.0000025
 6,-0.00000578,0.00001519,-0.00001869,0.00031755,-0.00009436,-0.0000886
 0,0.00008146,-0.00055001,0.00039346,0.00002493,0.00001027,-0.00003092,
 0.00001216,-0.00002009,0.00001761,0.00001790,0.00000524,0.00007814,0.0
 0003050,-0.00002384,-0.00000562,-0.00003456,0.00001977,0.00004968,0.00
 002565,-0.00008547,-0.00008664,-0.00000843,0.00000983,0.00000462,0.000
 02536,0.00000160,0.00000215,0.00000840,0.00000435,0.00009961,-0.000091
 04,0.00006605,0.00006408,0.00004840,-0.00000946,0.00001817,0.00000876,
 -0.00002508,0.00004898,-0.00003017,0.00001620,-0.00000419,0.00005737,-
 0.00003397,0.00002760,0.00001556,0.00001759,0.00003343,0.00006987,-0.0
 0006193,0.00000785,0.00002403,-0.00001837,-0.00000571,0.00000677,-0.00
 000749,0.00001006,0.00073629,0.00451789,-0.00347481,0.00036885,0.00078
 802,0.00009738,-0.00009016,0.00004272,0.00008692,-0.00000805,-0.000024
 79,-0.00001330,0.00002318,-0.00000240,0.00003011,0.00080357,0.00022469
 ,0.00022424,-0.00000406,-0.00006875,-0.00007269,0.12623237,-0.00002669
 ,0.00002277,-0.00002218,0.00004772,-0.00000563,-0.00005420,0.00002139,
 0.00004173,0.00003281,0.00005470,-0.00000926,-0.00000533,0.00072486,-0
 .00251466,0.00150295,0.00028285,-0.00041567,0.00191643,-0.00001001,-0.
 00005274,0.00007027,-0.13096591,-0.18631663,0.18601822,0.00227762,0.00
 381516,-0.00185830,-0.00035580,-0.00005832,-0.00001546,-0.00021027,0.0
 0010883,0.00011283,0.00007068,0.00014559,-0.00002374,0.00082004,-0.000
 88738,-0.00092694,-0.00000923,0.00003615,-0.00003404,-0.00045467,0.000
 51281,0.00012937,0.00014052,-0.00041479,0.00019104,0.00011880,0.000024
 68,-0.00001458,-0.00003739,-0.00001573,0.00001378,-0.00046347,-0.00027
 974,-0.00011669,-0.00689565,-0.00607781,0.00210968,0.00090497,0.001631
 77,-0.00139659,-0.00023927,-0.00021589,0.00021882,0.00020600,-0.000470
 01,0.00072597,0.00094337,0.00000338,-0.00022781,0.00006451,-0.00021959
 ,-0.00011871,0.00000499,-0.00008254,0.00004486,0.00003431,-0.00137857,
 0.00015132,-0.00003320,-0.00028220,-0.00006525,0.00046374,0.00153739,0
 .00001347,-0.00022959,-0.00005400,-0.00009088,0.00006944,0.00008923,0.
 00007944,-0.00001208,-0.00002675,-0.00002165,-0.00000614,-0.00000448,-
 0.00000546,-0.00001602,-0.00006297,-0.00000832,0.00009035,-0.00007721,
 0.00001269,0.00005587,-0.00008648,-0.00004448,-0.00051807,0.00148523,-
 0.00114471,-0.00039977,-0.00030994,0.00006835,-0.00003753,0.00001263,-
 0.00003172,0.00000821,0.00003180,-0.00003143,0.00005114,-0.00000007,0.
 00000960,-0.00001328,-0.00001597,0.00001068,0.00014195,-0.00057823,-0.
 00006939,0.00082888,0.00032256,-0.00009467,-0.00007342,-0.00001968,0.0
 0000724,-0.00031737,0.00031204,0.00019765,-0.00000285,0.00001077,0.000
 04308,-0.00000545,-0.00000591,0.00000253,-0.00000729,0.00001673,-0.000
 03211,0.00002585,-0.00029672,-0.00003381,0.00001136,-0.00001641,-0.000
 01055,-0.00018016,0.00010292,0.00011676,-0.00041507,0.00048129,-0.0000
 7760,-0.00001892,0.00007850,0.00012354,-0.00002370,-0.00000860,0.00000
 536,0.00001463,0.00002856,-0.00002833,-0.00010304,-0.00007395,0.000087
 21,0.00007156,-0.00000655,-0.00006506,0.00002206,-0.00014355,-0.000013
 30,0.00001954,0.00001029,-0.00010106,0.00002121,-0.00002613,-0.0000385
 2,0.00000707,0.00000035,-0.00000208,0.00108080,0.00007552,0.00100168,0
 .00000276,-0.00011615,0.00001351,0.00015841,0.00007992,-0.00021661,0.0
 0130739,-0.00476070,-0.00354566,-0.00013911,0.00004460,0.00013013,-0.0
 0272330,0.00080095,-0.00173731,-0.00001850,0.00183680,-0.00037333,-0.0
 0015703,0.00022583,-0.00013599,0.00000331,-0.00004333,0.00000139,0.000
 09074,-0.00010815,-0.00007527,-0.00008978,-0.00002085,-0.00005614,-0.0
 0011169,0.00001747,0.00013814,-0.00002482,-0.00007342,-0.00001946,0.00
 005119,0.00000330,0.00001602,0.00002129,0.00000241,0.00024947,0.000949
 18,0.00090654,-0.00003203,0.00017999,-0.00018178,-0.00012158,-0.000082
 53,-0.00012531,0.00002132,-0.00005685,0.00003075,-0.00010161,-0.000004
 08,0.00003324,0.00005618,-0.00000942,-0.00001855,0.00001846,-0.0000128
 5,0.00001942,-0.00000613,-0.00004670,0.00002843,0.00000988,-0.00001343
 ,0.00007966,-0.00007362,0.00009458,0.00026283,-0.00011579,-0.00002551,
 -0.00003733,-0.00001458,0.00003071,-0.00003036,0.00002696,-0.00000869,
 -0.00001705,-0.00001060,-0.00003518,0.00000250,0.00001016,-0.00001557,
 -0.00000621,0.00000998,-0.00000622,0.00005264,0.00001560,0.00000526,-0
 .00001886,-0.00001091,0.00005319,0.00028543,-0.00017504,-0.00003643,-0
 .00003432,0.00000447,0.00000440,-0.00000289,-0.00000246,0.00003309,-0.
 00006485,0.00001822,-0.00000685,0.00001105,0.00002334,-0.00002318,-0.0
 0001121,0.00000827,0.00021186,-0.00009352,-0.00000953,0.00004812,-0.00
 025647,0.00018836,0.00000138,0.00000156,-0.00002789,-0.00004204,0.0000
 1244,0.00002200,-0.00000015,-0.00002347,0.00001120,0.00002717,-0.00001
 160,-0.00001228,0.00000695,0.00000364,-0.00002312,-0.00002846,-0.00006
 097,-0.00000003,0.00000361,-0.00001161,0.00000901,-0.00001529,0.000011
 79,0.00000050,0.00003712,0.00000604,0.00002057,-0.00005185,0.00003576,
 0.00002814,0.00003329,-0.00000035,0.00001092,0.00000520,-0.00000735,0.
 00001408,-0.00002204,0.00001582,-0.00001322,0.00001957,0.00000339,0.00
 000630,0.00000046,-0.00000065,0.00002369,0.00003095,-0.00001711,-0.000
 01181,0.00000702,-0.00000328,0.00000110,0.00000014,0.00000127,0.000002
 10,0.00366755,-0.00362359,0.00452178,-0.00015769,-0.00042846,0.0000687
 1,0.00000094,0.00004675,0.00000875,-0.00001270,-0.00000685,-0.00003284
 ,0.00000367,-0.00002014,0.00005059,0.00033011,0.00020240,0.00036436,-0
 .00008718,-0.00018225,-0.00012128,0.12902489,0.19592642,0.00003612,-0.
 00007926,-0.00000257,-0.00001938,-0.00003009,-0.00005545,0.00001060,0.
 00001661,-0.00003578,-0.00004992,-0.00003692,0.00005738,-0.00123074,0.
 00197509,0.00126095,0.00358311,0.00303479,0.00079024,-0.00002935,0.000
 17485,-0.00002762,0.13435915,0.19355486,-0.22206726,-0.00220507,-0.006
 23125,-0.01101361,-0.00022761,0.00001573,0.00004797,0.00017084,-0.0002
 2275,-0.00004797,0.00001038,-0.00000127,-0.00001317,-0.00000018,-0.000
 06658,-0.00053354,-0.00005814,0.00001167,0.00009846,-0.00007964,0.0001
 2932,-0.00005940,-0.00010395,0.00014981,0.00019239,-0.00013917,-0.0001
 5613,-0.00006827,0.00005284,0.00003920,-0.00003417,0.00038904,0.000363
 79,-0.00036431,-0.00317171,-0.00465208,0.00808870,0.00196387,-0.000834
 23,-0.00218543,-0.00016596,-0.00069487,0.00021987,-0.00054941,0.000087
 73,-0.00014604,0.00001440,-0.00040081,0.00034783,0.00000791,0.00006885
 ,-0.00001669,-0.00001523,0.00003734,0.00002039,-0.00052114,-0.00054987
 ,0.00067138,-0.00004409,-0.00014914,0.00011051,0.00002803,0.00012460,0
 .00088651,0.00004778,-0.00001465,0.00007544,0.00003040,-0.00002516,-0.
 00003354,-0.00002971,0.00006922,0.00000095,0.00001247,-0.00001218,0.00
 000132,-0.00001867,0.00000370,-0.00001856,0.00016473,-0.00005287,0.000
 03473,-0.00000917,-0.00000859,0.00004044,-0.00089567,0.00100562,-0.003
 41942,0.00017967,0.00022840,-0.00028717,0.00006744,-0.00002569,0.00004
 444,-0.00000976,-0.00006096,-0.00014120,-0.00008690,0.00010570,-0.0000
 2867,-0.00004628,0.00003785,-0.00002364,-0.00011089,-0.00022782,-0.000
 04951,-0.00000622,0.00012236,-0.00025246,-0.00007356,-0.00004540,0.000
 00886,-0.00042308,0.00048708,0.00002752,-0.00002885,-0.00002438,-0.000
 02712,0.00003688,-0.00000842,-0.00000456,0.00000743,-0.00000806,0.0000
 0508,0.00000246,-0.00002291,-0.00005207,-0.00000598,-0.00003487,0.0000
 0484,0.00008610,-0.00004951,-0.00003671,0.00014226,-0.00000598,-0.0001
 0794,-0.00009587,0.00004950,0.00004352,0.00002545,0.00003502,-0.000004
 35,0.00000556,0.00000216,-0.00001062,0.00003053,-0.00001773,-0.0000162
 2,0.00004145,0.00001351,0.00001183,0.00000853,-0.00004180,0.00007655,0
 .00001390,-0.00000121,-0.00005306,0.00001333,0.00000080,-0.00001203,0.
 00000214,0.00000473,0.00000410,-0.00140661,-0.00172989,0.00010269,0.00
 023739,0.00000503,0.00008769,0.00002188,-0.00041592,0.00030006,-0.0038
 1600,0.00029487,0.00531959,0.00049056,-0.00017706,-0.00049370,0.001957
 40,-0.00090330,-0.00012462,0.00414959,-0.00055334,-0.00033134,-0.00045
 659,0.00003598,-0.00015933,-0.00013332,0.00013792,0.00003607,0.0001041
 4,0.00001869,-0.00015102,0.00008556,0.00004807,0.00009283,0.00012772,-
 0.00002716,-0.00018936,0.00011559,0.00030695,0.00018966,-0.00013750,-0
 .00003229,-0.00002953,-0.00000236,0.00000334,-0.00006773,-0.00101460,-
 0.00056876,-0.00054700,-0.00014392,0.00013037,0.00009840,0.00011900,-0
 .00013515,0.00009932,0.00008493,0.00010727,0.00002719,0.00017906,0.000
 06532,0.00005272,0.00000750,0.00000256,-0.00001022,0.00003048,-0.00005
 293,-0.00003819,-0.00000142,-0.00005548,-0.00002253,0.00003973,-0.0002
 9352,0.00004366,-0.00021654,-0.00007141,0.00066081,0.00000853,0.000002
 18,-0.00000113,-0.00001467,0.00010672,-0.00005246,0.00004555,0.0000118
 6,0.00002858,-0.00003302,0.00000523,0.00003032,0.00002297,-0.00001383,
 -0.00003262,0.00000031,-0.00006443,-0.00002506,0.00002206,0.00000394,-
 0.00000807,0.00007098,-0.00013021,0.00015796,-0.00008447,-0.00003341,-
 0.00010111,-0.00000638,-0.00002158,0.00002080,-0.00006905,0.00015012,-
 0.00003009,0.00002488,-0.00001811,-0.00003219,0.00003920,0.00001915,-0
 .00000846,-0.00018184,0.00005368,0.00002276,0.00018849,0.00003109,-0.0
 0006719,-0.00000781,0.00002327,0.00003028,-0.00000150,0.00003237,-0.00
 004908,-0.00000202,0.00000571,0.00000275,-0.00005498,0.00002796,0.0000
 1972,0.00001880,-0.00002515,-0.00004491,0.00010277,0.00000818,-0.00010
 684,0.00002681,0.00000321,0.00001197,-0.00005712,0.00002084,0.00001478
 ,-0.00009090,-0.00006387,0.00011279,0.00009865,-0.00005764,-0.00004712
 ,-0.00008919,-0.00000485,-0.00003054,-0.00000867,0.00000971,-0.0000120
 8,-0.00001633,-0.00000093,0.00000485,0.00002187,-0.00001303,-0.0000006
 5,0.00002746,0.00001432,-0.00009642,-0.00005234,0.00001756,0.00004276,
 0.00000814,-0.00000162,0.00000727,0.00000475,-0.00000046,-0.00000525,-
 0.00241169,0.00347326,-0.00035935,0.00005062,0.00022323,-0.00012469,0.
 00003529,0.00001760,-0.00005513,-0.00002619,0.00000724,0.00010632,-0.0
 0001857,-0.00003436,0.00007994,0.00009620,0.00056239,-0.00060465,-0.00
 015620,-0.00040372,-0.00026083,-0.12904656,-0.18724024,0.22459388\\0.0
 0000135,-0.00000173,-0.00000010,-0.00000168,-0.00000122,-0.00000327,0.
 00000171,0.00000108,0.00000023,0.00000126,0.,0.00000089,0.00000273,-0.
 00000397,0.00000195,0.00000397,-0.00000058,-0.00000974,-0.00000009,0.0
 0000076,0.00000167,0.00000831,0.00000738,0.00000419,-0.00000472,0.0000
 1100,0.00000208,0.00000220,-0.00000360,0.00000200,0.00000005,-0.000000
 62,-0.00000124,0.00000114,0.00000110,0.00000111,-0.00000037,0.00000278
 ,-0.00000103,-0.00000140,-0.00000398,-0.00000124,0.00000188,-0.0000006
 8,0.00000058,-0.00000151,0.00000038,-0.00000059,-0.00000142,-0.0000001
 5,-0.00000318,0.00000096,-0.00000093,-0.00000098,-0.00000019,-0.000002
 19,-0.00000075,-0.00000978,-0.00000568,0.00002427,0.00000772,0.0000031
 6,0.00000136,-0.00000184,0.00000592,-0.00000339,-0.00000310,0.00000085
 ,-0.00000036,-0.00000304,-0.00000040,-0.00000383,0.00000154,-0.0000013
 1,0.00000008,-0.00000186,0.00000015,-0.00000154,0.00000003,0.00000002,
 0.00000113,-0.00000052,0.00000227,0.00000511,0.00000308,-0.00000381,0.
 00000377,-0.00000163,-0.00000186,0.00000049,-0.00000514,-0.00000073,-0
 .00000304,-0.00000118,0.00000084,0.00000231,-0.00000026,0.00000117,0.0
 0000105,0.00000020,-0.00000082,-0.00000186,-0.00000208,0.00000018,0.00
 000009,0.00000133,0.00000026,0.00000039,0.00000289,0.00000113,-0.00001
 973,0.00000032,0.00000409,0.00000042,-0.00000056,-0.00000467,0.0000014
 0,0.00000115,0.00000265,-0.00000399,0.00000299,0.00000079,0.00000307,-
 0.00000041,-0.00000190,-0.00000055,-0.00000028,-0.00000180,0.00000555,
 0.00000398,0.00000038,-0.00000117,0.00000085,0.00000189,0.00000347,-0.
 00000274,0.00000056,-0.00000119,0.00000070,0.00000188,0.00000142,-0.00
 000003,-0.00000287,-0.00000558,0.00000041,0.00000148,0.00000221,0.0000
 0203,0.00000383,-0.00000014,-0.00000036,0.00000073,0.00000106,0.000001
 82,0.00000044,-0.00000022,-0.00000300,0.00000452,0.00000256,0.00000001
 ,0.00000172,-0.00000098,0.00000147,0.00000064,0.00000154,0.00000032,0.
 00000131,0.00000080,0.00000329,-0.00000229,-0.00000086,-0.00000061,-0.
 00000306,0.00000052,0.00000168,0.00000174,-0.00000015,0.00000045,0.000
 00133,0.00000036,0.00000026,0.00000092,0.00000010,0.00000025,0.0000010
 9,0.00000041,-0.00000159,0.00000370,0.00000524,0.00000251,0.00000005,-
 0.00000112,-0.00000139,-0.00000158,-0.00000027,-0.00000070,-0.00002978
 ,-0.00000523,0.00000080,0.00000075,-0.00000016,0.00001852,0.00003435,0
 .00000209,0.00000767,0.00002696,0.00000280,-0.00000109,0.00000270,0.00
 000147,0.00000038,0.00000029,0.00000032,-0.00000297,0.00000096,-0.0000
 0161,-0.00000479,-0.00000564,0.00000592,-0.00000118,-0.00000084,-0.000
 00019,-0.00000095,-0.00000030,-0.00000346,-0.00000052,-0.00000132,0.00
 000030,-0.00000058,-0.00000041,0.00000301,-0.00000045,-0.00001781,-0.0
 0000726,-0.00000090,-0.00000190,0.00000058,-0.00000485,-0.00000354,-0.
 00000107,-0.00000243,0.00000985,-0.00000580,0.00000153,-0.00000357,0.0
 0000202,-0.00000024,0.00000007,0.00000056,0.00000083,0.00000032,-0.000
 00010,-0.00000124,-0.00000053,0.00000195,-0.00000004,-0.00000128,-0.00
 000394,-0.00000141,-0.00000021,0.00000246,-0.00000148,-0.00000004,0.00
 000116,-0.00000187,-0.00000326,0.00000099,0.00000049,0.00000070,-0.000
 00088,0.00000136,0.00000137,0.00000080,0.00000005,-0.00000165,-0.00000
 010,-0.00000063,-0.00000178,-0.00000093,0.00000003,-0.00000021,0.00000
 027,-0.00000472,0.00000980,-0.00000409,0.00000228,0.00000092,0.0000029
 7,-0.00000099,0.00000044,0.00000094,-0.00000024,-0.00000132,-0.0000004
 3,0.00000105,0.00000131,-0.00000210,0.00000008,-0.00000083,-0.00000049
 ,0.00000210,0.00000354,-0.00000794,0.00000325,0.00000216,0.00001231,-0
 .00000072,0.00000105,-0.00000202,0.00000170,-0.00000029,0.00000177,0.0
 0000053,0.00000062,0.00000005,0.00000078,-0.00000487,-0.00000034,0.000
 00104,0.00000060,-0.00000108,0.00000162,0.00000108,-0.00000285,0.00000
 051,0.00000040,-0.00000040,0.00000021,-0.00000060,0.00000007,-0.000000
 70,-0.00000484,-0.00000016,-0.00000122,-0.00000265,0.00000112,-0.00000
 002,-0.00000016,-0.00000066,-0.00000004,0.00000095,0.00000005,-0.00000
 026,-0.00000175,-0.00000035,-0.00000088,-0.00000051,-0.00000054,-0.000
 00131,-0.00000116,-0.00000283,-0.00000113,0.00000007,0.00000175,-0.000
 00004,0.00000030,0.00000048,0.,0.00000024,0.00000029,-0.00002643,-0.00
 003454,0.00000019,0.00000161,-0.00000572,-0.00000274,-0.00000066,-0.00
 000065,-0.00000069,0.00000028,0.00000033,-0.00000086,0.00000108,-0.000
 00057,0.00000119,0.00000064,0.00000171,-0.00000101,-0.00000073,0.00000
 047,-0.00000240,0.00000396,0.00000646,0.00000206\\\@


 It takes a long time to grow an old friend.
                            -- John Leonard
 Job cpu time:      24 days  3 hours 14 minutes 14.4 seconds.
 Elapsed time:       1 days  5 hours  9 minutes 25.0 seconds.
 File lengths (MBytes):  RWF=  33957 Int=      0 D2E=      0 Chk=    163 Scr=      1
 Normal termination of Gaussian 16 at Sun Mar 15 04:08:16 2020.
