 Entering Gaussian System, Link 0=g16
 Initial command:
 /cluster/chemistry/gaussian/g16/l1.exe "/scratch/js1212.723650/scratch/Gau-25740.inp" -scrdir="/scratch/js1212.723650/scratch/"
 Entering Link 1 = /cluster/chemistry/gaussian/g16/l1.exe PID=     25741.
  
 Copyright (c) 1988,1990,1992,1993,1995,1998,2003,2009,2016,
            Gaussian, Inc.  All Rights Reserved.
  
 This is part of the Gaussian(R) 16 program.  It is based on
 the Gaussian(R) 09 system (copyright 2009, Gaussian, Inc.),
 the Gaussian(R) 03 system (copyright 2003, Gaussian, Inc.),
 the Gaussian(R) 98 system (copyright 1998, Gaussian, Inc.),
 the Gaussian(R) 94 system (copyright 1995, Gaussian, Inc.),
 the Gaussian 92(TM) system (copyright 1992, Gaussian, Inc.),
 the Gaussian 90(TM) system (copyright 1990, Gaussian, Inc.),
 the Gaussian 88(TM) system (copyright 1988, Gaussian, Inc.),
 the Gaussian 86(TM) system (copyright 1986, Carnegie Mellon
 University), and the Gaussian 82(TM) system (copyright 1983,
 Carnegie Mellon University). Gaussian is a federally registered
 trademark of Gaussian, Inc.
  
 This software contains proprietary and confidential information,
 including trade secrets, belonging to Gaussian, Inc.
  
 This software is provided under written license and may be
 used, copied, transmitted, or stored only in accord with that
 written license.
  
 The following legend is applicable only to US Government
 contracts under FAR:
  
                    RESTRICTED RIGHTS LEGEND
  
 Use, reproduction and disclosure by the US Government is
 subject to restrictions as set forth in subparagraphs (a)
 and (c) of the Commercial Computer Software - Restricted
 Rights clause in FAR 52.227-19.
  
 Gaussian, Inc.
 340 Quinnipiac St., Bldg. 40, Wallingford CT 06492
  
  
 ---------------------------------------------------------------
 Warning -- This program may not be used in any manner that
 competes with the business of Gaussian, Inc. or will provide
 assistance to any competitor of Gaussian, Inc.  The licensee
 of this program is prohibited from giving any competitor of
 Gaussian, Inc. access to this program.  By using this program,
 the user acknowledges that Gaussian, Inc. is engaged in the
 business of creating and licensing software in the field of
 computational chemistry and represents and warrants to the
 licensee that it is not a competitor of Gaussian, Inc. and that
 it will not use this program in any manner prohibited above.
 ---------------------------------------------------------------
  

 Cite this work as:
 Gaussian 16, Revision A.03,
 M. J. Frisch, G. W. Trucks, H. B. Schlegel, G. E. Scuseria, 
 M. A. Robb, J. R. Cheeseman, G. Scalmani, V. Barone, 
 G. A. Petersson, H. Nakatsuji, X. Li, M. Caricato, A. V. Marenich, 
 J. Bloino, B. G. Janesko, R. Gomperts, B. Mennucci, H. P. Hratchian, 
 J. V. Ortiz, A. F. Izmaylov, J. L. Sonnenberg, D. Williams-Young, 
 F. Ding, F. Lipparini, F. Egidi, J. Goings, B. Peng, A. Petrone, 
 T. Henderson, D. Ranasinghe, V. G. Zakrzewski, J. Gao, N. Rega, 
 G. Zheng, W. Liang, M. Hada, M. Ehara, K. Toyota, R. Fukuda, 
 J. Hasegawa, M. Ishida, T. Nakajima, Y. Honda, O. Kitao, H. Nakai, 
 T. Vreven, K. Throssell, J. A. Montgomery, Jr., J. E. Peralta, 
 F. Ogliaro, M. J. Bearpark, J. J. Heyd, E. N. Brothers, K. N. Kudin, 
 V. N. Staroverov, T. A. Keith, R. Kobayashi, J. Normand, 
 K. Raghavachari, A. P. Rendell, J. C. Burant, S. S. Iyengar, 
 J. Tomasi, M. Cossi, J. M. Millam, M. Klene, C. Adamo, R. Cammi, 
 J. W. Ochterski, R. L. Martin, K. Morokuma, O. Farkas, 
 J. B. Foresman, and D. J. Fox, Gaussian, Inc., Wallingford CT, 2016.
 
 ******************************************
 Gaussian 16:  ES64L-G16RevA.03 25-Dec-2016
                13-Mar-2020 
 ******************************************
 %rwf=/scratch/js1212.723650/G-R2-R2-Down-GP-T-TD-SMD.rwf
 %nosave
 %nprocshared=20
 Will use up to   20 processors via shared memory.
 %mem=3000MB
 %chk=/scratch/js1212.723650/G-R2-R2-Down-GPO-T-H2O-Moved.chk
 ----------------------------------------------------------------------
 # genecp pbe1pbe EmpiricalDispersion=GD3BJ scrf=(SMD,solvent=water) td
 =nstates=25 geom=allcheck
 ----------------------------------------------------------------------
 1/29=7,38=1,172=1/1;
 2/12=2,40=1/2;
 3/5=7,11=9,14=-4,16=1,17=8,25=1,30=1,70=32201,72=1,74=-13,124=41/1,2,3,8;
 4//1;
 5/5=2,38=5,53=1/2;
 8/6=1,10=1,108=25/1;
 9/41=25,42=1,70=2/14;
 6/7=2,8=2,9=2,10=2/1;
 99/5=1,9=1/99;
 Structure from the checkpoint file:  "/scratch/js1212.723650/G-R2-R2-Down-GPO-T-H2O-Moved.chk"
 -------------------
 Title Card Required
 -------------------
 Charge =  0 Multiplicity = 3
 Redundant internal coordinates found in file.  (old form).
 H,0,-0.0829430788,-3.7119200872,-2.3645937809
 C,0,-1.0714019335,-3.4238173566,-1.9805898425
 H,0,-1.7431147061,-4.2831612036,-2.1319834927
 H,0,-1.4338800197,-2.5685016477,-2.5738265204
 H,0,-1.2262347471,2.7254565651,-1.1627811506
 O,0,-1.8549851589,-0.4245746277,-2.3976474366
 H,0,-2.8740037374,2.335808004,-3.4430456823
 O,0,-1.1896941486,0.17408182,0.18171505
 H,0,-0.4913866825,0.5399602469,-2.2675758205
 C,0,-0.9275198667,-3.0295912427,-0.5278520154
 H,0,-1.3613376256,4.3168164692,-0.3783607988
 H,0,-0.5627307164,-3.8809891608,0.0776188272
 C,0,-1.931592184,3.5270220687,-0.8956730257
 H,0,-3.5067720527,0.692403795,-3.5336156866
 H,0,-2.3150955254,3.9638135763,-1.8298448618
 H,0,-0.1825319422,-2.23075197,-0.4088715059
 C,0,-3.8014622518,1.7516057324,-3.5365610281
 H,0,-4.2631403741,1.9995802949,-4.5067070842
 H,0,-1.0266145993,-1.5511023936,1.4867092753
 Ru,0,-2.8775651067,-0.5219452899,-0.7731122959
 H,0,-1.8761983539,1.6642161976,1.2199771084
 N,0,-2.188575475,-2.5286215971,0.0719819979
 C,0,-1.9401912515,-2.1657604108,1.4814570762
 C,0,-3.0628953783,3.0593298055,0.0221811994
 H,0,-1.8445919856,3.3808103409,1.757469144
 H,0,-4.3071559015,4.2280292121,-2.4915120712
 C,0,-2.4820480809,2.57412081,1.3572993126
 C,0,-4.7937843334,2.0852115779,-2.4166239705
 P,0,-3.9278267647,1.5709410864,-0.7961947883
 H,0,-1.7593075182,-3.0572199068,2.1042961748
 C,0,-5.1784323447,3.5615002997,-2.5103263937
 H,0,-3.5324707189,-3.6539894044,-1.0688332462
 H,0,-2.1721967174,-5.4180545799,0.0935389566
 H,0,-5.6846894013,3.7168536259,-3.4774676695
 C,0,-3.2798798814,-3.532811757,-0.0091773173
 H,0,-3.4516878331,4.9201509468,1.0024739473
 C,0,-4.2668284467,-1.3260177048,-1.6648689342
 C,0,-4.0009708404,4.2288938888,0.3421728364
 H,0,-5.936612436,0.1947805612,-2.5253840961
 C,0,-6.0814760283,1.2776347883,-2.5971444635
 H,0,-4.3127850285,4.800664835,-0.5368214445
 H,0,-6.4739482866,1.4826194902,-3.6066358842
 C,0,-3.0703900545,-1.3518311153,2.0393732907
 N,0,-3.6935161425,-0.552735062,1.154414509
 C,0,-2.9974539693,-4.897591635,0.600196463
 H,0,-3.2737303846,2.3902369943,2.1003228534
 H,0,-4.1624707142,-3.0834059065,0.4699362965
 H,0,-5.8797620595,3.866270859,-1.7205330343
 H,0,-2.7655912283,-4.8518410637,1.6746092838
 C,0,-5.2658003455,1.1306934263,0.4446101616
 H,0,-3.8973853621,-5.5208558977,0.4893178512
 H,0,-4.9011910141,3.9157998234,0.8935341867
 C,0,-4.6812989341,0.2798843448,1.533887775
 C,0,-3.4463512751,-1.3547527021,3.378616406
 H,0,-6.8593561833,1.5827397557,-1.879956473
 H,0,-2.9353755929,-2.0106328827,4.0842843774
 H,0,-5.9956164403,0.5252667859,-0.1166736068
 H,0,-5.7967020053,2.0005709798,0.8555772629
 C,0,-5.0943395405,0.322226813,2.8632079386
 C,0,-4.4686990284,-0.5047594185,3.7926677589
 H,0,-5.8921665797,1.0026944461,3.1622000652
 H,0,-4.7775045806,-0.4850877775,4.8393215249
 O,0,-5.0786374417,-1.909722485,-2.258505084
 C,0,-0.1473534539,0.9281367054,4.2107114835
 H,0,1.2900469986,-1.2724022713,-2.0816062495
 O,0,0.1665939944,1.2735828747,-2.0840123424
 H,0,2.4325779561,1.446736926,-3.1726250055
 O,0,1.2688720217,-0.9666333848,0.622644665
 H,0,0.8963209601,0.8599155773,-1.5941606203
 C,0,0.5217073282,1.0414285265,2.8484035607
 H,0,1.7574153798,-2.5664919516,-3.2127968468
 C,0,2.0874802835,-1.6209912504,-2.7511940786
 H,0,3.0546718641,2.5424747294,-1.9357240558
 H,0,2.2050163777,-0.885487678,-3.5606469937
 C,0,3.3351433954,1.9735441822,-2.8319855009
 H,0,3.6308488168,2.6870867937,-3.6197961772
 H,0,1.5428252993,-1.2450489767,2.7337281945
 Ru,0,2.6880168201,0.5664194747,0.5894639446
 H,0,2.3712095537,-2.3756074359,-0.1081679306
 N,0,1.9746466571,0.7704238194,2.7948609325
 C,0,2.2563305193,-0.5983562449,3.2727684008
 C,0,3.382586092,-1.8597429993,-1.9760710864
 H,0,2.6760607927,-3.7458035143,-1.2296060638
 H,0,4.1176408003,-0.1321568341,-4.3777517096
 C,0,3.0987134068,-2.8159621672,-0.8093263085
 C,0,4.5069978929,1.0270959501,-2.5537374782
 P,0,3.9037251174,-0.1957750843,-1.2004179037
 H,0,2.1182710638,-0.6847240746,4.3648547688
 C,0,4.9416080983,0.3871481594,-3.8709803341
 H,0,3.8216076969,1.5625649685,3.3260110175
 H,0,2.3636381028,3.4508829265,2.3340048699
 H,0,5.2823212178,1.1904834046,-4.5458904702
 C,0,2.7678305468,1.7271311136,3.5971001241
 H,0,4.1132019745,-3.5795561741,-3.027900635
 C,0,3.6075221804,2.139316478,0.5758535904
 C,0,4.4242006252,-2.5322906651,-2.875719283
 H,0,5.5119997802,2.2978999913,-1.0526769525
 C,0,5.6967866126,1.8383708876,-2.0312611139
 H,0,4.5114761236,-2.0742053634,-3.8659027632
 H,0,5.8911456945,2.6592628428,-2.7416620577
 C,0,3.6242479819,-1.0860849556,2.8851771074
 N,0,4.0158183061,-0.7296088184,1.6552994524
 C,0,2.4025366385,3.1843262654,3.3978844589
 H,0,4.0223506759,-3.0964174097,-0.2780007683
 H,0,2.6697395701,1.4701252509,4.6709002047
 H,0,5.7799436657,-0.3121948079,-3.7446049208
 H,0,1.4363625606,3.4360818845,3.8592086068
 C,0,5.4716045291,-0.6777267454,-0.2638705343
 H,0,3.1707697878,3.8139853942,3.8702054007
 H,0,5.4254247581,-2.5628601059,-2.4184304802
 C,0,5.1556539881,-1.1836284424,1.1130582644
 C,0,4.4110587209,-1.9271461003,3.6657434198
 H,0,6.6143977022,1.2322470725,-1.9789578089
 H,0,4.0910848498,-2.2036181178,4.6714480508
 H,0,6.0291744956,0.2649058912,-0.1476212554
 H,0,6.1225323144,-1.3781712764,-0.807802854
 C,0,5.9771979203,-2.0489384317,1.8366634863
 C,0,5.6005988749,-2.4150045312,3.1261198969
 H,0,6.9010049382,-2.423814928,1.3938948682
 H,0,6.235317227,-3.0825671432,3.7121627691
 H,0,0.4053490117,-0.5621992274,0.3933730766
 O,0,4.1449690705,3.1843148521,0.5938484574
 H,0,-1.2128522218,1.181677148,4.0982251175
 H,0,0.2791723572,1.6115141711,4.9620523904
 H,0,-0.1002948952,-0.0945536709,4.61627264
 H,0,0.0518095897,0.358888709,2.1297091626
 H,0,0.373583742,2.0477200133,2.4371941762
 H,0,-0.7566124106,0.764183818,-0.4580663812
 Recover connectivity data from disk.
                           ----------------------------
                           !    Current Parameters    !
                           ! (Angstroms and Degrees)  !
 --------------------------                            --------------------------
 ! Name  Definition              Value                                          !
 --------------------------------------------------------------------------------
 ! R1    R(1,2)                  1.0989                                         !
 ! R2    R(2,3)                  1.1012                                         !
 ! R3    R(2,4)                  1.1022                                         !
 ! R4    R(2,10)                 1.5121                                         !
 ! R5    R(5,13)                 1.1006                                         !
 ! R6    R(6,9)                  1.6753                                         !
 ! R7    R(6,20)                 1.922                                          !
 ! R8    R(7,17)                 1.1001                                         !
 ! R9    R(8,20)                 2.0604                                         !
 ! R10   R(8,121)                1.7695                                         !
 ! R11   R(8,128)                0.9722                                         !
 ! R12   R(9,14)                 3.2739                                         !
 ! R13   R(9,66)                 1.0024                                         !
 ! R14   R(10,12)                1.1066                                         !
 ! R15   R(10,16)                1.0988                                         !
 ! R16   R(10,22)                1.4836                                         !
 ! R17   R(11,13)                1.103                                          !
 ! R18   R(13,15)                1.1002                                         !
 ! R19   R(13,24)                1.53                                           !
 ! R20   R(14,17)                1.0994                                         !
 ! R21   R(17,18)                1.1026                                         !
 ! R22   R(17,28)                1.5331                                         !
 ! R23   R(19,23)                1.1011                                         !
 ! R24   R(20,29)                2.3417                                         !
 ! R25   R(20,37)                1.8363                                         !
 ! R26   R(20,44)                2.0933                                         !
 ! R27   R(21,27)                1.1017                                         !
 ! R28   R(22,23)                1.4765                                         !
 ! R29   R(22,35)                1.4852                                         !
 ! R30   R(23,30)                1.1024                                         !
 ! R31   R(23,43)                1.5004                                         !
 ! R32   R(24,27)                1.5347                                         !
 ! R33   R(24,29)                1.9061                                         !
 ! R34   R(24,38)                1.5331                                         !
 ! R35   R(25,27)                1.1033                                         !
 ! R36   R(26,31)                1.0971                                         !
 ! R37   R(27,46)                1.1012                                         !
 ! R38   R(28,29)                1.9079                                         !
 ! R39   R(28,31)                1.5285                                         !
 ! R40   R(28,40)                1.5307                                         !
 ! R41   R(29,50)                1.8771                                         !
 ! R42   R(31,34)                1.1026                                         !
 ! R43   R(31,48)                1.0993                                         !
 ! R44   R(32,35)                1.0961                                         !
 ! R45   R(33,45)                1.0994                                         !
 ! R46   R(35,45)                1.5211                                         !
 ! R47   R(35,47)                1.1002                                         !
 ! R48   R(36,38)                1.1025                                         !
 ! R49   R(37,63)                1.1628                                         !
 ! R50   R(38,41)                1.094                                          !
 ! R51   R(38,52)                1.1011                                         !
 ! R52   R(39,40)                1.0949                                         !
 ! R53   R(40,42)                1.1023                                         !
 ! R54   R(40,55)                1.1012                                         !
 ! R55   R(43,44)                1.3454                                         !
 ! R56   R(43,54)                1.391                                          !
 ! R57   R(44,53)                1.3465                                         !
 ! R58   R(45,49)                1.1001                                         !
 ! R59   R(45,51)                1.1003                                         !
 ! R60   R(50,53)                1.5007                                         !
 ! R61   R(50,57)                1.1019                                         !
 ! R62   R(50,58)                1.0988                                         !
 ! R63   R(53,59)                1.3927                                         !
 ! R64   R(54,56)                1.0905                                         !
 ! R65   R(54,60)                1.3925                                         !
 ! R66   R(59,60)                1.3926                                         !
 ! R67   R(59,61)                1.0904                                         !
 ! R68   R(60,62)                1.0914                                         !
 ! R69   R(64,70)                1.522                                          !
 ! R70   R(64,123)               1.101                                          !
 ! R71   R(64,124)               1.1016                                         !
 ! R72   R(64,125)               1.1012                                         !
 ! R73   R(65,72)                1.0981                                         !
 ! R74   R(66,69)                0.9714                                         !
 ! R75   R(67,75)                1.0992                                         !
 ! R76   R(68,78)                2.0893                                         !
 ! R77   R(68,121)               0.9807                                         !
 ! R78   R(69,73)                2.7579                                         !
 ! R79   R(69,78)                2.8398                                         !
 ! R80   R(70,80)                1.479                                          !
 ! R81   R(70,126)               1.0969                                         !
 ! R82   R(70,127)               1.0971                                         !
 ! R83   R(71,72)                1.1027                                         !
 ! R84   R(72,74)                1.1                                            !
 ! R85   R(72,82)                1.5281                                         !
 ! R86   R(73,75)                1.098                                          !
 ! R87   R(75,76)                1.1033                                         !
 ! R88   R(75,86)                1.5318                                         !
 ! R89   R(77,81)                1.1036                                         !
 ! R90   R(78,87)                2.294                                          !
 ! R91   R(78,95)                1.822                                          !
 ! R92   R(78,102)               2.1398                                         !
 ! R93   R(79,85)                1.1022                                         !
 ! R94   R(80,81)                1.4769                                         !
 ! R95   R(80,93)                1.4792                                         !
 ! R96   R(81,88)                1.1042                                         !
 ! R97   R(81,101)               1.5031                                         !
 ! R98   R(82,85)                1.535                                          !
 ! R99   R(82,87)                1.9084                                         !
 ! R100  R(82,96)                1.5319                                         !
 ! R101  R(83,85)                1.1045                                         !
 ! R102  R(84,89)                1.0979                                         !
 ! R103  R(85,104)               1.1018                                         !
 ! R104  R(86,87)                1.9212                                         !
 ! R105  R(86,89)                1.5276                                         !
 ! R106  R(86,98)                1.5319                                         !
 ! R107  R(87,108)               1.8888                                         !
 ! R108  R(89,92)                1.1031                                         !
 ! R109  R(89,106)               1.099                                          !
 ! R110  R(90,93)                1.1005                                         !
 ! R111  R(91,103)               1.0975                                         !
 ! R112  R(93,103)               1.5154                                         !
 ! R113  R(93,105)               1.1085                                         !
 ! R114  R(94,96)                1.103                                          !
 ! R115  R(95,122)               1.1752                                         !
 ! R116  R(96,99)                1.0945                                         !
 ! R117  R(96,110)               1.1011                                         !
 ! R118  R(97,98)                1.0968                                         !
 ! R119  R(98,100)               1.1029                                         !
 ! R120  R(98,113)               1.101                                          !
 ! R121  R(101,102)              1.339                                          !
 ! R122  R(101,112)              1.3913                                         !
 ! R123  R(102,111)              1.3414                                         !
 ! R124  R(103,107)              1.0999                                         !
 ! R125  R(103,109)              1.0999                                         !
 ! R126  R(108,111)              1.5006                                         !
 ! R127  R(108,115)              1.1013                                         !
 ! R128  R(108,116)              1.1001                                         !
 ! R129  R(111,117)              1.3955                                         !
 ! R130  R(112,114)              1.091                                          !
 ! R131  R(112,118)              1.3943                                         !
 ! R132  R(117,118)              1.3923                                         !
 ! R133  R(117,119)              1.0909                                         !
 ! R134  R(118,120)              1.0918                                         !
 ! R135  R(121,128)              1.9582                                         !
 ! A1    A(1,2,3)              107.221                                          !
 ! A2    A(1,2,4)              108.1308                                         !
 ! A3    A(1,2,10)             108.5715                                         !
 ! A4    A(3,2,4)              109.328                                          !
 ! A5    A(3,2,10)             113.1773                                         !
 ! A6    A(4,2,10)             110.2466                                         !
 ! A7    A(9,6,20)             113.3647                                         !
 ! A8    A(20,8,121)           130.7925                                         !
 ! A9    A(20,8,128)           105.3681                                         !
 ! A10   A(6,9,14)              41.1597                                         !
 ! A11   A(6,9,66)             165.8925                                         !
 ! A12   A(14,9,66)            129.8884                                         !
 ! A13   A(2,10,12)            110.8816                                         !
 ! A14   A(2,10,16)            110.9827                                         !
 ! A15   A(2,10,22)            113.3025                                         !
 ! A16   A(12,10,16)           106.0579                                         !
 ! A17   A(12,10,22)           108.5896                                         !
 ! A18   A(16,10,22)           106.6807                                         !
 ! A19   A(5,13,11)            107.6964                                         !
 ! A20   A(5,13,15)            107.8454                                         !
 ! A21   A(5,13,24)            113.3797                                         !
 ! A22   A(11,13,15)           107.1071                                         !
 ! A23   A(11,13,24)           108.6506                                         !
 ! A24   A(15,13,24)           111.8986                                         !
 ! A25   A(9,14,17)            107.0236                                         !
 ! A26   A(7,17,14)            106.5833                                         !
 ! A27   A(7,17,18)            107.9603                                         !
 ! A28   A(7,17,28)            111.5951                                         !
 ! A29   A(14,17,18)           109.3444                                         !
 ! A30   A(14,17,28)           112.4071                                         !
 ! A31   A(18,17,28)           108.8316                                         !
 ! A32   A(6,20,8)              86.4877                                         !
 ! A33   A(6,20,29)            100.6614                                         !
 ! A34   A(6,20,37)             90.8156                                         !
 ! A35   A(8,20,29)             94.0176                                         !
 ! A36   A(8,20,44)             84.1206                                         !
 ! A37   A(29,20,37)            92.708                                          !
 ! A38   A(29,20,44)            81.2227                                         !
 ! A39   A(37,20,44)            98.3854                                         !
 ! A40   A(10,22,23)           109.0237                                         !
 ! A41   A(10,22,35)           111.9721                                         !
 ! A42   A(23,22,35)           109.9948                                         !
 ! A43   A(19,23,22)           106.3388                                         !
 ! A44   A(19,23,30)           108.2138                                         !
 ! A45   A(19,23,43)           108.6864                                         !
 ! A46   A(22,23,30)           111.6049                                         !
 ! A47   A(22,23,43)           111.1972                                         !
 ! A48   A(30,23,43)           110.6209                                         !
 ! A49   A(13,24,27)           109.7958                                         !
 ! A50   A(13,24,29)           108.4601                                         !
 ! A51   A(13,24,38)           110.1482                                         !
 ! A52   A(27,24,29)           107.3602                                         !
 ! A53   A(27,24,38)           106.9298                                         !
 ! A54   A(29,24,38)           114.0586                                         !
 ! A55   A(21,27,24)           111.1492                                         !
 ! A56   A(21,27,25)           109.3504                                         !
 ! A57   A(21,27,46)           109.97                                           !
 ! A58   A(24,27,25)           107.6407                                         !
 ! A59   A(24,27,46)           111.5728                                         !
 ! A60   A(25,27,46)           107.0221                                         !
 ! A61   A(17,28,29)           105.5457                                         !
 ! A62   A(17,28,31)           109.1651                                         !
 ! A63   A(17,28,40)           110.0947                                         !
 ! A64   A(29,28,31)           115.2543                                         !
 ! A65   A(29,28,40)           109.8637                                         !
 ! A66   A(31,28,40)           106.897                                          !
 ! A67   A(20,29,24)           119.3493                                         !
 ! A68   A(20,29,28)           116.9257                                         !
 ! A69   A(20,29,50)            95.9438                                         !
 ! A70   A(24,29,28)           111.1084                                         !
 ! A71   A(24,29,50)           102.872                                          !
 ! A72   A(28,29,50)           107.5246                                         !
 ! A73   A(26,31,28)           112.6982                                         !
 ! A74   A(26,31,34)           107.1011                                         !
 ! A75   A(26,31,48)           109.019                                          !
 ! A76   A(28,31,34)           107.7824                                         !
 ! A77   A(28,31,48)           112.5989                                         !
 ! A78   A(34,31,48)           107.3484                                         !
 ! A79   A(22,35,32)           107.2719                                         !
 ! A80   A(22,35,45)           116.6357                                         !
 ! A81   A(22,35,47)           106.8256                                         !
 ! A82   A(32,35,45)           109.3235                                         !
 ! A83   A(32,35,47)           106.3376                                         !
 ! A84   A(45,35,47)           109.9368                                         !
 ! A85   A(24,38,36)           107.3661                                         !
 ! A86   A(24,38,41)           113.9181                                         !
 ! A87   A(24,38,52)           112.8212                                         !
 ! A88   A(36,38,41)           107.1887                                         !
 ! A89   A(36,38,52)           106.6009                                         !
 ! A90   A(41,38,52)           108.5372                                         !
 ! A91   A(28,40,39)           113.7519                                         !
 ! A92   A(28,40,42)           108.0241                                         !
 ! A93   A(28,40,55)           111.7952                                         !
 ! A94   A(39,40,42)           106.9208                                         !
 ! A95   A(39,40,55)           108.9547                                         !
 ! A96   A(42,40,55)           107.0625                                         !
 ! A97   A(23,43,44)           115.2465                                         !
 ! A98   A(23,43,54)           124.0882                                         !
 ! A99   A(44,43,54)           120.6217                                         !
 ! A100  A(20,44,43)           115.7143                                         !
 ! A101  A(20,44,53)           122.4362                                         !
 ! A102  A(43,44,53)           121.4459                                         !
 ! A103  A(33,45,35)           112.3037                                         !
 ! A104  A(33,45,49)           108.1541                                         !
 ! A105  A(33,45,51)           107.419                                          !
 ! A106  A(35,45,49)           113.1464                                         !
 ! A107  A(35,45,51)           108.4219                                         !
 ! A108  A(49,45,51)           107.1194                                         !
 ! A109  A(29,50,53)           109.5816                                         !
 ! A110  A(29,50,57)           105.322                                          !
 ! A111  A(29,50,58)           113.9497                                         !
 ! A112  A(53,50,57)           108.4331                                         !
 ! A113  A(53,50,58)           111.4401                                         !
 ! A114  A(57,50,58)           107.7858                                         !
 ! A115  A(44,53,50)           115.5789                                         !
 ! A116  A(44,53,59)           120.3573                                         !
 ! A117  A(50,53,59)           124.0621                                         !
 ! A118  A(43,54,56)           119.8432                                         !
 ! A119  A(43,54,60)           118.909                                          !
 ! A120  A(56,54,60)           121.2459                                         !
 ! A121  A(53,59,60)           119.0642                                         !
 ! A122  A(53,59,61)           119.849                                          !
 ! A123  A(60,59,61)           121.0852                                         !
 ! A124  A(54,60,59)           119.5956                                         !
 ! A125  A(54,60,62)           120.2559                                         !
 ! A126  A(59,60,62)           120.1484                                         !
 ! A127  A(70,64,123)          108.4716                                         !
 ! A128  A(70,64,124)          113.2114                                         !
 ! A129  A(70,64,125)          112.3343                                         !
 ! A130  A(123,64,124)         107.55                                           !
 ! A131  A(123,64,125)         107.0287                                         !
 ! A132  A(124,64,125)         107.963                                          !
 ! A133  A(9,66,69)            105.8895                                         !
 ! A134  A(78,68,121)          106.9636                                         !
 ! A135  A(66,69,73)           105.4055                                         !
 ! A136  A(66,69,78)           154.923                                          !
 ! A137  A(73,69,78)            70.3986                                         !
 ! A138  A(64,70,80)           116.7843                                         !
 ! A139  A(64,70,126)          110.5996                                         !
 ! A140  A(64,70,127)          110.1462                                         !
 ! A141  A(80,70,126)          106.4458                                         !
 ! A142  A(80,70,127)          106.6866                                         !
 ! A143  A(126,70,127)         105.5048                                         !
 ! A144  A(65,72,71)           108.0643                                         !
 ! A145  A(65,72,74)           108.3037                                         !
 ! A146  A(65,72,82)           110.8407                                         !
 ! A147  A(71,72,74)           107.2928                                         !
 ! A148  A(71,72,82)           109.3932                                         !
 ! A149  A(74,72,82)           112.7788                                         !
 ! A150  A(69,73,75)            89.1339                                         !
 ! A151  A(67,75,73)           106.9508                                         !
 ! A152  A(67,75,76)           107.9845                                         !
 ! A153  A(67,75,86)           112.8514                                         !
 ! A154  A(73,75,76)           108.434                                          !
 ! A155  A(73,75,86)           111.5483                                         !
 ! A156  A(76,75,86)           108.9211                                         !
 ! A157  A(68,78,69)            70.0929                                         !
 ! A158  A(68,78,87)            97.3862                                         !
 ! A159  A(68,78,102)           88.2324                                         !
 ! A160  A(69,78,87)            76.6289                                         !
 ! A161  A(69,78,95)           102.9112                                         !
 ! A162  A(87,78,95)            90.7765                                         !
 ! A163  A(87,78,102)           81.8685                                         !
 ! A164  A(95,78,102)          102.3235                                         !
 ! A165  A(70,80,81)           110.2108                                         !
 ! A166  A(70,80,93)           112.87                                           !
 ! A167  A(81,80,93)           108.7629                                         !
 ! A168  A(77,81,80)           105.1726                                         !
 ! A169  A(77,81,88)           110.8812                                         !
 ! A170  A(77,81,101)          105.801                                          !
 ! A171  A(80,81,88)           111.6349                                         !
 ! A172  A(80,81,101)          113.0077                                         !
 ! A173  A(88,81,101)          110.0873                                         !
 ! A174  A(72,82,85)           109.035                                          !
 ! A175  A(72,82,87)           107.5401                                         !
 ! A176  A(72,82,96)           110.3027                                         !
 ! A177  A(85,82,87)           106.5422                                         !
 ! A178  A(85,82,96)           107.3762                                         !
 ! A179  A(87,82,96)           115.8373                                         !
 ! A180  A(79,85,82)           110.8989                                         !
 ! A181  A(79,85,83)           109.0167                                         !
 ! A182  A(79,85,104)          110.3793                                         !
 ! A183  A(82,85,83)           107.8171                                         !
 ! A184  A(82,85,104)          111.7195                                         !
 ! A185  A(83,85,104)          106.8571                                         !
 ! A186  A(75,86,87)           106.3211                                         !
 ! A187  A(75,86,89)           108.6542                                         !
 ! A188  A(75,86,98)           109.2024                                         !
 ! A189  A(87,86,89)           115.4746                                         !
 ! A190  A(87,86,98)           109.9213                                         !
 ! A191  A(89,86,98)           107.1567                                         !
 ! A192  A(78,87,82)           117.5227                                         !
 ! A193  A(78,87,86)           120.3012                                         !
 ! A194  A(78,87,108)           97.9209                                         !
 ! A195  A(82,87,86)           110.7592                                         !
 ! A196  A(82,87,108)          101.872                                          !
 ! A197  A(86,87,108)          104.5391                                         !
 ! A198  A(84,89,86)           112.4978                                         !
 ! A199  A(84,89,92)           107.088                                          !
 ! A200  A(84,89,106)          108.9392                                         !
 ! A201  A(86,89,92)           108.0808                                         !
 ! A202  A(86,89,106)          112.609                                          !
 ! A203  A(92,89,106)          107.3462                                         !
 ! A204  A(80,93,90)           106.4486                                         !
 ! A205  A(80,93,103)          114.9209                                         !
 ! A206  A(80,93,105)          109.1458                                         !
 ! A207  A(90,93,103)          110.0131                                         !
 ! A208  A(90,93,105)          106.7802                                         !
 ! A209  A(103,93,105)         109.2056                                         !
 ! A210  A(82,96,94)           107.8276                                         !
 ! A211  A(82,96,99)           113.6896                                         !
 ! A212  A(82,96,110)          112.7406                                         !
 ! A213  A(94,96,99)           107.1602                                         !
 ! A214  A(94,96,110)          106.6969                                         !
 ! A215  A(99,96,110)          108.3501                                         !
 ! A216  A(86,98,97)           113.2869                                         !
 ! A217  A(86,98,100)          108.1415                                         !
 ! A218  A(86,98,113)          111.8371                                         !
 ! A219  A(97,98,100)          107.0111                                         !
 ! A220  A(97,98,113)          109.1897                                         !
 ! A221  A(100,98,113)         107.0676                                         !
 ! A222  A(81,101,102)         114.6193                                         !
 ! A223  A(81,101,112)         124.4817                                         !
 ! A224  A(102,101,112)        120.7209                                         !
 ! A225  A(78,102,101)         115.9305                                         !
 ! A226  A(78,102,111)         122.0683                                         !
 ! A227  A(101,102,111)        121.9824                                         !
 ! A228  A(91,103,93)          111.6867                                         !
 ! A229  A(91,103,107)         108.6553                                         !
 ! A230  A(91,103,109)         107.5778                                         !
 ! A231  A(93,103,107)         112.1302                                         !
 ! A232  A(93,103,109)         109.0056                                         !
 ! A233  A(107,103,109)        107.6026                                         !
 ! A234  A(87,108,111)         111.4833                                         !
 ! A235  A(87,108,115)         104.7255                                         !
 ! A236  A(87,108,116)         114.1085                                         !
 ! A237  A(111,108,115)        107.3554                                         !
 ! A238  A(111,108,116)        111.3232                                         !
 ! A239  A(115,108,116)        107.3131                                         !
 ! A240  A(102,111,108)        115.8318                                         !
 ! A241  A(102,111,117)        120.0348                                         !
 ! A242  A(108,111,117)        124.1193                                         !
 ! A243  A(101,112,114)        120.2985                                         !
 ! A244  A(101,112,118)        118.4791                                         !
 ! A245  A(114,112,118)        121.2181                                         !
 ! A246  A(111,117,118)        118.9489                                         !
 ! A247  A(111,117,119)        120.0788                                         !
 ! A248  A(118,117,119)        120.9715                                         !
 ! A249  A(112,118,117)        119.8138                                         !
 ! A250  A(112,118,120)        120.1438                                         !
 ! A251  A(117,118,120)        120.0425                                         !
 ! A252  A(8,121,68)           173.3429                                         !
 ! A253  A(68,121,128)         154.6181                                         !
 ! A254  L(6,20,44,8,-1)       170.6083                                         !
 ! A255  L(8,20,37,6,-1)       177.3033                                         !
 ! A256  L(20,37,63,3,-1)      174.8896                                         !
 ! A257  L(68,78,95,69,-1)     173.0041                                         !
 ! A258  L(69,78,102,68,-1)    158.3253                                         !
 ! A259  L(78,95,122,5,-1)     177.5789                                         !
 ! A260  L(6,20,44,8,-2)       181.1914                                         !
 ! A261  L(8,20,37,6,-2)       173.6579                                         !
 ! A262  L(20,37,63,3,-2)      180.7929                                         !
 ! A263  L(68,78,95,69,-2)     169.2059                                         !
 ! A264  L(69,78,102,68,-2)    154.4095                                         !
 ! A265  L(78,95,122,5,-2)     177.515                                          !
 ! D1    D(1,2,10,12)          -61.6499                                         !
 ! D2    D(1,2,10,16)           55.9562                                         !
 ! D3    D(1,2,10,22)          175.9506                                         !
 ! D4    D(3,2,10,12)           57.2701                                         !
 ! D5    D(3,2,10,16)          174.8761                                         !
 ! D6    D(3,2,10,22)          -65.1294                                         !
 ! D7    D(4,2,10,12)         -179.9331                                         !
 ! D8    D(4,2,10,16)          -62.3271                                         !
 ! D9    D(4,2,10,22)           57.6674                                         !
 ! D10   D(20,6,9,14)         -103.1808                                         !
 ! D11   D(20,6,9,66)          -46.8241                                         !
 ! D12   D(9,6,20,8)           -17.6852                                         !
 ! D13   D(9,6,20,29)           75.7473                                         !
 ! D14   D(9,6,20,37)          168.6569                                         !
 ! D15   D(9,6,44,43)          -75.8981                                         !
 ! D16   D(9,6,44,53)           92.6241                                         !
 ! D17   D(121,8,20,6)         -65.1657                                         !
 ! D18   D(121,8,20,29)       -165.6227                                         !
 ! D19   D(121,8,20,44)        113.643                                          !
 ! D20   D(128,8,20,6)          32.935                                          !
 ! D21   D(128,8,20,29)        -67.522                                          !
 ! D22   D(128,8,20,44)       -148.2564                                         !
 ! D23   D(20,8,121,68)       -118.1689                                         !
 ! D24   D(6,9,14,17)          152.2044                                         !
 ! D25   D(66,9,14,17)         -12.461                                          !
 ! D26   D(6,9,66,69)          126.6393                                         !
 ! D27   D(14,9,66,69)         172.2083                                         !
 ! D28   D(2,10,22,23)        -179.6852                                         !
 ! D29   D(2,10,22,35)          58.3683                                         !
 ! D30   D(12,10,22,23)         56.6506                                         !
 ! D31   D(12,10,22,35)        -65.2959                                         !
 ! D32   D(16,10,22,23)        -57.2679                                         !
 ! D33   D(16,10,22,35)       -179.2144                                         !
 ! D34   D(5,13,24,27)          62.7035                                         !
 ! D35   D(5,13,24,29)         -54.3277                                         !
 ! D36   D(5,13,24,38)        -179.7981                                         !
 ! D37   D(11,13,24,27)        -56.9949                                         !
 ! D38   D(11,13,24,29)       -174.0261                                         !
 ! D39   D(11,13,24,38)         60.5035                                         !
 ! D40   D(15,13,24,27)       -175.0473                                         !
 ! D41   D(15,13,24,29)         67.9215                                         !
 ! D42   D(15,13,24,38)        -57.5489                                         !
 ! D43   D(9,14,17,7)           18.6692                                         !
 ! D44   D(9,14,17,18)         135.127                                          !
 ! D45   D(9,14,17,28)        -103.8897                                         !
 ! D46   D(7,17,28,29)         -62.7367                                         !
 ! D47   D(7,17,28,31)          61.7006                                         !
 ! D48   D(7,17,28,40)         178.7528                                         !
 ! D49   D(14,17,28,29)         56.9482                                         !
 ! D50   D(14,17,28,31)       -178.6145                                         !
 ! D51   D(14,17,28,40)        -61.5622                                         !
 ! D52   D(18,17,28,29)        178.2254                                         !
 ! D53   D(18,17,28,31)        -57.3373                                         !
 ! D54   D(18,17,28,40)         59.715                                          !
 ! D55   D(6,20,29,24)         -89.4138                                         !
 ! D56   D(6,20,29,28)          49.0893                                         !
 ! D57   D(6,20,29,50)         162.1951                                         !
 ! D58   D(8,20,29,24)          -2.2379                                         !
 ! D59   D(8,20,29,28)         136.2651                                         !
 ! D60   D(8,20,29,50)        -110.629                                          !
 ! D61   D(37,20,29,24)        179.2451                                         !
 ! D62   D(37,20,29,28)        -42.2518                                         !
 ! D63   D(37,20,29,50)         70.854                                          !
 ! D64   D(44,20,29,24)         81.173                                          !
 ! D65   D(44,20,29,28)       -140.324                                          !
 ! D66   D(44,20,29,50)        -27.2181                                         !
 ! D67   D(8,20,44,43)         -60.658                                          !
 ! D68   D(8,20,44,53)         112.1414                                         !
 ! D69   D(29,20,44,43)       -155.6587                                         !
 ! D70   D(29,20,44,53)         17.1407                                         !
 ! D71   D(37,20,44,43)        112.8766                                         !
 ! D72   D(37,20,44,53)        -74.3241                                         !
 ! D73   D(10,22,23,19)         48.045                                          !
 ! D74   D(10,22,23,30)        -69.7576                                         !
 ! D75   D(10,22,23,43)        166.1956                                         !
 ! D76   D(35,22,23,19)        171.1801                                         !
 ! D77   D(35,22,23,30)         53.3775                                         !
 ! D78   D(35,22,23,43)        -70.6693                                         !
 ! D79   D(10,22,35,32)        -67.1821                                         !
 ! D80   D(10,22,35,45)         55.7478                                         !
 ! D81   D(10,22,35,47)        179.1283                                         !
 ! D82   D(23,22,35,32)        171.4293                                         !
 ! D83   D(23,22,35,45)        -65.6408                                         !
 ! D84   D(23,22,35,47)         57.7396                                         !
 ! D85   D(19,23,43,44)         84.5894                                         !
 ! D86   D(19,23,43,54)        -93.0146                                         !
 ! D87   D(22,23,43,44)        -32.1342                                         !
 ! D88   D(22,23,43,54)        150.2618                                         !
 ! D89   D(30,23,43,44)       -156.7375                                         !
 ! D90   D(30,23,43,54)         25.6585                                         !
 ! D91   D(13,24,27,21)        -66.4151                                         !
 ! D92   D(13,24,27,25)         53.309                                          !
 ! D93   D(13,24,27,46)        170.4419                                         !
 ! D94   D(29,24,27,21)         51.3026                                         !
 ! D95   D(29,24,27,25)        171.0267                                         !
 ! D96   D(29,24,27,46)        -71.8404                                         !
 ! D97   D(38,24,27,21)        174.0976                                         !
 ! D98   D(38,24,27,25)        -66.1782                                         !
 ! D99   D(38,24,27,46)         50.9547                                         !
 ! D100  D(13,24,29,20)         75.4501                                         !
 ! D101  D(13,24,29,28)        -65.2601                                         !
 ! D102  D(13,24,29,50)        179.9489                                         !
 ! D103  D(27,24,29,20)        -43.1334                                         !
 ! D104  D(27,24,29,28)        176.1564                                         !
 ! D105  D(27,24,29,50)         61.3654                                         !
 ! D106  D(38,24,29,20)       -161.4077                                         !
 ! D107  D(38,24,29,28)         57.8821                                         !
 ! D108  D(38,24,29,50)        -56.9089                                         !
 ! D109  D(13,24,38,36)        -70.197                                          !
 ! D110  D(13,24,38,41)         48.3203                                         !
 ! D111  D(13,24,38,52)        172.65                                           !
 ! D112  D(27,24,38,36)         49.0627                                         !
 ! D113  D(27,24,38,41)        167.58                                           !
 ! D114  D(27,24,38,52)        -68.0903                                         !
 ! D115  D(29,24,38,36)        167.5826                                         !
 ! D116  D(29,24,38,41)        -73.9002                                         !
 ! D117  D(29,24,38,52)         50.4296                                         !
 ! D118  D(17,28,29,20)        -45.7906                                         !
 ! D119  D(17,28,29,24)         95.9607                                         !
 ! D120  D(17,28,29,50)       -152.1806                                         !
 ! D121  D(31,28,29,20)       -166.3209                                         !
 ! D122  D(31,28,29,24)        -24.5696                                         !
 ! D123  D(31,28,29,50)         87.2891                                         !
 ! D124  D(40,28,29,20)         72.8739                                         !
 ! D125  D(40,28,29,24)       -145.3748                                         !
 ! D126  D(40,28,29,50)        -33.5161                                         !
 ! D127  D(17,28,31,26)        -55.3081                                         !
 ! D128  D(17,28,31,34)         62.6541                                         !
 ! D129  D(17,28,31,48)       -179.1372                                         !
 ! D130  D(29,28,31,26)         63.225                                          !
 ! D131  D(29,28,31,34)       -178.8128                                         !
 ! D132  D(29,28,31,48)        -60.6041                                         !
 ! D133  D(40,28,31,26)       -174.3677                                         !
 ! D134  D(40,28,31,34)        -56.4054                                         !
 ! D135  D(40,28,31,48)         61.8032                                         !
 ! D136  D(17,28,40,39)         62.9156                                         !
 ! D137  D(17,28,40,42)        -55.6118                                         !
 ! D138  D(17,28,40,55)       -173.1555                                         !
 ! D139  D(29,28,40,39)        -52.9081                                         !
 ! D140  D(29,28,40,42)       -171.4356                                         !
 ! D141  D(29,28,40,55)         71.0208                                         !
 ! D142  D(31,28,40,39)       -178.629                                          !
 ! D143  D(31,28,40,42)         62.8436                                         !
 ! D144  D(31,28,40,55)        -54.7001                                         !
 ! D145  D(20,29,50,53)         39.4851                                         !
 ! D146  D(20,29,50,57)        -76.9662                                         !
 ! D147  D(20,29,50,58)        165.113                                          !
 ! D148  D(24,29,50,53)        -82.4715                                         !
 ! D149  D(24,29,50,57)        161.0772                                         !
 ! D150  D(24,29,50,58)         43.1564                                         !
 ! D151  D(28,29,50,53)        160.17                                           !
 ! D152  D(28,29,50,57)         43.7187                                         !
 ! D153  D(28,29,50,58)        -74.2021                                         !
 ! D154  D(22,35,45,33)        -62.9233                                         !
 ! D155  D(22,35,45,49)         59.87                                           !
 ! D156  D(22,35,45,51)        178.5432                                         !
 ! D157  D(32,35,45,33)         58.9373                                         !
 ! D158  D(32,35,45,49)       -178.2694                                         !
 ! D159  D(32,35,45,51)        -59.5961                                         !
 ! D160  D(47,35,45,33)        175.3148                                         !
 ! D161  D(47,35,45,49)        -61.8919                                         !
 ! D162  D(47,35,45,51)         56.7814                                         !
 ! D163  D(23,43,44,20)         -3.8263                                         !
 ! D164  D(23,43,44,53)       -176.7032                                         !
 ! D165  D(54,43,44,20)        173.8679                                         !
 ! D166  D(54,43,44,53)          0.991                                          !
 ! D167  D(23,43,54,56)         -2.7725                                         !
 ! D168  D(23,43,54,60)        176.7279                                         !
 ! D169  D(44,43,54,56)        179.7459                                         !
 ! D170  D(44,43,54,60)         -0.7538                                         !
 ! D171  D(20,44,53,50)          6.4471                                         !
 ! D172  D(20,44,53,59)       -173.1021                                         !
 ! D173  D(43,44,53,50)        178.8404                                         !
 ! D174  D(43,44,53,59)         -0.7088                                         !
 ! D175  D(29,50,53,44)        -33.4742                                         !
 ! D176  D(29,50,53,59)        146.0563                                         !
 ! D177  D(57,50,53,44)         80.9944                                         !
 ! D178  D(57,50,53,59)        -99.4752                                         !
 ! D179  D(58,50,53,44)       -160.5289                                         !
 ! D180  D(58,50,53,59)         19.0016                                         !
 ! D181  D(44,53,59,60)          0.201                                          !
 ! D182  D(44,53,59,61)        179.74                                           !
 ! D183  D(50,53,59,60)       -179.3082                                         !
 ! D184  D(50,53,59,61)          0.2309                                         !
 ! D185  D(43,54,60,59)          0.2567                                         !
 ! D186  D(43,54,60,62)       -179.657                                          !
 ! D187  D(56,54,60,59)        179.7498                                         !
 ! D188  D(56,54,60,62)         -0.1639                                         !
 ! D189  D(53,59,60,54)          0.0121                                         !
 ! D190  D(53,59,60,62)        179.9259                                         !
 ! D191  D(61,59,60,54)       -179.521                                          !
 ! D192  D(61,59,60,62)          0.3928                                         !
 ! D193  D(123,64,70,80)       178.525                                          !
 ! D194  D(123,64,70,126)      -59.5687                                         !
 ! D195  D(123,64,70,127)       56.6681                                         !
 ! D196  D(124,64,70,80)        59.2392                                         !
 ! D197  D(124,64,70,126)     -178.8545                                         !
 ! D198  D(124,64,70,127)      -62.6177                                         !
 ! D199  D(125,64,70,80)       -63.3735                                         !
 ! D200  D(125,64,70,126)       58.5328                                         !
 ! D201  D(125,64,70,127)      174.7696                                         !
 ! D202  D(9,66,69,73)         158.8503                                         !
 ! D203  D(9,66,69,78)        -124.5745                                         !
 ! D204  D(121,68,78,69)       -41.0169                                         !
 ! D205  D(121,68,78,87)      -113.8619                                         !
 ! D206  D(121,68,78,102)      164.5737                                         !
 ! D207  D(78,68,121,8)        -97.9113                                         !
 ! D208  D(78,68,121,128)       27.2587                                         !
 ! D209  D(66,69,73,75)        -90.2933                                         !
 ! D210  D(78,69,73,75)        115.6585                                         !
 ! D211  D(66,69,78,68)        107.3176                                         !
 ! D212  D(66,69,78,87)       -149.5845                                         !
 ! D213  D(66,69,78,95)        -61.8884                                         !
 ! D214  D(73,69,78,68)       -168.173                                          !
 ! D215  D(73,69,78,87)        -65.0751                                         !
 ! D216  D(73,69,78,95)         22.621                                          !
 ! D217  D(66,69,102,101)       35.7326                                         !
 ! D218  D(66,69,102,111)     -164.7285                                         !
 ! D219  D(73,69,102,101)      138.452                                          !
 ! D220  D(73,69,102,111)      -62.0091                                         !
 ! D221  D(64,70,80,81)         59.08                                           !
 ! D222  D(64,70,80,93)        -62.742                                          !
 ! D223  D(126,70,80,81)       -64.9718                                         !
 ! D224  D(126,70,80,93)       173.2063                                         !
 ! D225  D(127,70,80,81)      -177.272                                          !
 ! D226  D(127,70,80,93)        60.9061                                         !
 ! D227  D(65,72,82,85)         54.2577                                         !
 ! D228  D(65,72,82,87)        -60.8882                                         !
 ! D229  D(65,72,82,96)        171.9348                                         !
 ! D230  D(71,72,82,85)        -64.8043                                         !
 ! D231  D(71,72,82,87)       -179.9502                                         !
 ! D232  D(71,72,82,96)         52.8728                                         !
 ! D233  D(74,72,82,85)        175.8803                                         !
 ! D234  D(74,72,82,87)         60.7344                                         !
 ! D235  D(74,72,82,96)        -66.4426                                         !
 ! D236  D(69,73,75,67)         21.1158                                         !
 ! D237  D(69,73,75,76)        137.3367                                         !
 ! D238  D(69,73,75,86)       -102.7221                                         !
 ! D239  D(67,75,86,87)        -59.1316                                         !
 ! D240  D(67,75,86,89)         65.7494                                         !
 ! D241  D(67,75,86,98)       -177.6824                                         !
 ! D242  D(73,75,86,87)         61.3039                                         !
 ! D243  D(73,75,86,89)       -173.8151                                         !
 ! D244  D(73,75,86,98)        -57.2469                                         !
 ! D245  D(76,75,86,87)       -179.0425                                         !
 ! D246  D(76,75,86,89)        -54.1615                                         !
 ! D247  D(76,75,86,98)         62.4067                                         !
 ! D248  D(68,78,87,82)         -3.0764                                         !
 ! D249  D(68,78,87,86)        137.046                                          !
 ! D250  D(68,78,87,108)      -110.9377                                         !
 ! D251  D(69,78,87,82)        -70.5118                                         !
 ! D252  D(69,78,87,86)         69.6107                                         !
 ! D253  D(69,78,87,108)      -178.373                                          !
 ! D254  D(95,78,87,82)       -173.6009                                         !
 ! D255  D(95,78,87,86)        -33.4784                                         !
 ! D256  D(95,78,87,108)        78.5379                                         !
 ! D257  D(102,78,87,82)        84.0609                                         !
 ! D258  D(102,78,87,86)      -135.8166                                         !
 ! D259  D(102,78,87,108)      -23.8003                                         !
 ! D260  D(68,78,102,101)      -63.9281                                         !
 ! D261  D(68,78,102,111)      114.5268                                         !
 ! D262  D(87,78,102,101)     -161.6482                                         !
 ! D263  D(87,78,102,111)       16.8068                                         !
 ! D264  D(95,78,102,101)      109.3375                                         !
 ! D265  D(95,78,102,111)      -72.2076                                         !
 ! D266  D(70,80,81,77)         48.4681                                         !
 ! D267  D(70,80,81,88)        -71.8535                                         !
 ! D268  D(70,80,81,101)       163.4079                                         !
 ! D269  D(93,80,81,77)        172.693                                          !
 ! D270  D(93,80,81,88)         52.3715                                         !
 ! D271  D(93,80,81,101)       -72.3672                                         !
 ! D272  D(70,80,93,90)       -168.8496                                         !
 ! D273  D(70,80,93,103)       -46.8002                                         !
 ! D274  D(70,80,93,105)        76.2435                                         !
 ! D275  D(81,80,93,90)         68.5157                                         !
 ! D276  D(81,80,93,103)      -169.4349                                         !
 ! D277  D(81,80,93,105)       -46.3911                                         !
 ! D278  D(77,81,101,102)       75.6367                                         !
 ! D279  D(77,81,101,112)      -99.5261                                         !
 ! D280  D(80,81,101,102)      -38.9254                                         !
 ! D281  D(80,81,101,112)      145.9118                                         !
 ! D282  D(88,81,101,102)     -164.5015                                         !
 ! D283  D(88,81,101,112)       20.3357                                         !
 ! D284  D(72,82,85,79)        -61.9345                                         !
 ! D285  D(72,82,85,83)         57.3459                                         !
 ! D286  D(72,82,85,104)       174.4686                                         !
 ! D287  D(87,82,85,79)         53.8536                                         !
 ! D288  D(87,82,85,83)        173.134                                          !
 ! D289  D(87,82,85,104)       -69.7432                                         !
 ! D290  D(96,82,85,79)        178.5563                                         !
 ! D291  D(96,82,85,83)        -62.1633                                         !
 ! D292  D(96,82,85,104)        54.9594                                         !
 ! D293  D(72,82,87,78)         73.1899                                         !
 ! D294  D(72,82,87,86)        -70.5116                                         !
 ! D295  D(72,82,87,108)       178.7548                                         !
 ! D296  D(85,82,87,78)        -43.5983                                         !
 ! D297  D(85,82,87,86)        172.7001                                         !
 ! D298  D(85,82,87,108)        61.9665                                         !
 ! D299  D(96,82,87,78)       -162.9364                                         !
 ! D300  D(96,82,87,86)         53.362                                          !
 ! D301  D(96,82,87,108)       -57.3715                                         !
 ! D302  D(72,82,96,94)        -72.611                                          !
 ! D303  D(72,82,96,99)         46.0448                                         !
 ! D304  D(72,82,96,110)       169.8706                                         !
 ! D305  D(85,82,96,94)         46.0842                                         !
 ! D306  D(85,82,96,99)        164.74                                           !
 ! D307  D(85,82,96,110)       -71.4342                                         !
 ! D308  D(87,82,96,94)        164.9655                                         !
 ! D309  D(87,82,96,99)        -76.3786                                         !
 ! D310  D(87,82,96,110)        47.4471                                         !
 ! D311  D(75,86,87,78)        -42.5144                                         !
 ! D312  D(75,86,87,82)        100.0359                                         !
 ! D313  D(75,86,87,108)      -150.9626                                         !
 ! D314  D(89,86,87,78)       -163.0909                                         !
 ! D315  D(89,86,87,82)        -20.5407                                         !
 ! D316  D(89,86,87,108)        88.4608                                         !
 ! D317  D(98,86,87,78)         75.5623                                         !
 ! D318  D(98,86,87,82)       -141.8875                                         !
 ! D319  D(98,86,87,108)       -32.886                                          !
 ! D320  D(75,86,89,84)        -56.1082                                         !
 ! D321  D(75,86,89,92)         61.912                                          !
 ! D322  D(75,86,89,106)      -179.683                                          !
 ! D323  D(87,86,89,84)         63.1918                                         !
 ! D324  D(87,86,89,92)       -178.788                                          !
 ! D325  D(87,86,89,106)       -60.3829                                         !
 ! D326  D(98,86,89,84)       -173.9825                                         !
 ! D327  D(98,86,89,92)        -55.9623                                         !
 ! D328  D(98,86,89,106)        62.4428                                         !
 ! D329  D(75,86,98,97)         65.7899                                         !
 ! D330  D(75,86,98,100)       -52.6466                                         !
 ! D331  D(75,86,98,113)      -170.2938                                         !
 ! D332  D(87,86,98,97)        -50.4889                                         !
 ! D333  D(87,86,98,100)      -168.9254                                         !
 ! D334  D(87,86,98,113)        73.4274                                         !
 ! D335  D(89,86,98,97)       -176.694                                          !
 ! D336  D(89,86,98,100)        64.8695                                         !
 ! D337  D(89,86,98,113)       -52.7777                                         !
 ! D338  D(78,87,108,111)       33.7875                                         !
 ! D339  D(78,87,108,115)      -81.9911                                         !
 ! D340  D(78,87,108,116)      160.9622                                         !
 ! D341  D(82,87,108,111)      -86.6101                                         !
 ! D342  D(82,87,108,115)      157.6113                                         !
 ! D343  D(82,87,108,116)       40.5646                                         !
 ! D344  D(86,87,108,111)      158.0054                                         !
 ! D345  D(86,87,108,115)       42.2268                                         !
 ! D346  D(86,87,108,116)      -74.8199                                         !
 ! D347  D(80,93,103,91)       -49.8488                                         !
 ! D348  D(80,93,103,107)       72.3828                                         !
 ! D349  D(80,93,103,109)     -168.5812                                         !
 ! D350  D(90,93,103,91)        70.252                                          !
 ! D351  D(90,93,103,107)     -167.5164                                         !
 ! D352  D(90,93,103,109)      -48.4804                                         !
 ! D353  D(105,93,103,91)     -172.8605                                         !
 ! D354  D(105,93,103,107)     -50.6289                                         !
 ! D355  D(105,93,103,109)      68.4071                                         !
 ! D356  D(81,101,102,78)        4.5689                                         !
 ! D357  D(81,101,102,111)    -173.8875                                         !
 ! D358  D(112,101,102,78)     179.9311                                         !
 ! D359  D(112,101,102,111)      1.4747                                         !
 ! D360  D(81,101,112,114)      -5.8493                                         !
 ! D361  D(81,101,112,118)     173.4008                                         !
 ! D362  D(102,101,112,114)    179.2668                                         !
 ! D363  D(102,101,112,118)     -1.4831                                         !
 ! D364  D(78,102,111,108)       2.6131                                         !
 ! D365  D(78,102,111,117)    -178.7007                                         !
 ! D366  D(101,102,111,108)   -179.0251                                         !
 ! D367  D(101,102,111,117)     -0.339                                          !
 ! D368  D(87,108,111,102)     -26.299                                          !
 ! D369  D(87,108,111,117)     155.0749                                         !
 ! D370  D(115,108,111,102)     87.8555                                         !
 ! D371  D(115,108,111,117)    -90.7706                                         !
 ! D372  D(116,108,111,102)   -154.9704                                         !
 ! D373  D(116,108,111,117)     26.4035                                         !
 ! D374  D(102,111,117,118)     -0.7375                                         !
 ! D375  D(102,111,117,119)    179.5957                                         !
 ! D376  D(108,111,117,118)    177.834                                          !
 ! D377  D(108,111,117,119)     -1.8327                                         !
 ! D378  D(101,112,118,117)      0.4046                                         !
 ! D379  D(101,112,118,120)   -179.5682                                         !
 ! D380  D(114,112,118,117)    179.6475                                         !
 ! D381  D(114,112,118,120)     -0.3253                                         !
 ! D382  D(111,117,118,112)      0.6763                                         !
 ! D383  D(111,117,118,120)   -179.3509                                         !
 ! D384  D(119,117,118,112)   -179.66                                           !
 ! D385  D(119,117,118,120)      0.3128                                         !
 --------------------------------------------------------------------------------
 Stoichiometry    C40H74N4O6P2Ru2(3)
 Framework group  C1[X(C40H74N4O6P2Ru2)]
 Deg. of freedom   378
 Full point group                 C1      NOp   1
 Largest Abelian subgroup         C1      NOp   1
 Largest concise Abelian subgroup C1      NOp   1
                         Standard orientation:                         
 ---------------------------------------------------------------------
 Center     Atomic      Atomic             Coordinates (Angstroms)
 Number     Number       Type             X           Y           Z
 ---------------------------------------------------------------------
      1          1           0       -0.032708    1.604177    4.137174
      2          6           0        0.939032    1.192943    3.830385
      3          1           0        1.557565    1.106767    4.737348
      4          1           0        1.409312    1.906774    3.134564
      5          1           0        1.466672    1.598483   -2.339176
      6          8           0        1.967145    2.119663    1.025466
      7          1           0        3.263696    3.589763   -1.405321
      8          8           0        1.137210   -0.215118   -0.120883
      9          1           0        0.670132    2.313043   -0.017131
     10          6           0        0.705137   -0.132615    3.141363
     11          1           0        1.650718    1.135624   -4.047357
     12          1           0        0.231838   -0.857387    3.830738
     13          6           0        2.203388    1.429827   -3.139294
     14          1           0        3.782325    3.292630    0.253628
     15          1           0        2.692524    2.391378   -3.355407
     16          1           0        0.012086   -0.019858    2.296215
     17          6           0        4.151429    3.477386   -0.765385
     18          1           0        4.707690    4.429224   -0.785393
     19          1           0        0.744423   -1.814537    1.291011
     20         44           0        2.843445    0.418585    0.844641
     21          1           0        1.841305   -0.997927   -1.752213
     22          7           0        1.945413   -0.738079    2.597155
     23          6           0        1.608936   -2.017740    1.941995
     24          6           0        3.219169    0.334526   -2.808322
     25          1           0        1.888859   -1.179279   -3.541470
     26          1           0        4.745932    2.900457   -3.371962
     27          6           0        2.497513   -1.009075   -2.637145
     28          6           0        5.069923    2.356828   -1.266356
     29         15           0        4.039374    0.756141   -1.140193
     30          1           0        1.314152   -2.784819    2.676870
     31          6           0        5.565790    2.704219   -2.669780
     32          1           0        3.294195    0.024625    4.001803
     33          1           0        1.720244   -1.329903    5.416481
     34          1           0        6.159479    3.630554   -2.597463
     35          6           0        2.964898   -0.961229    3.653935
     36          1           0        3.658649   -0.290090   -4.806196
     37          6           0        4.239933    0.997653    1.886907
     38          6           0        4.209260    0.165118   -3.966459
     39          1           0        6.079362    1.980174    0.665167
     40          6           0        6.306869    2.250949   -0.370994
     41          1           0        4.632285    1.106368   -4.329610
     42          1           0        6.794481    3.239214   -0.344678
     43          6           0        2.745004   -2.507917    1.093364
     44          7           0        3.494273   -1.545320    0.525917
     45          6           0        2.536352   -1.799305    4.848800
     46          1           0        3.210375   -1.845411   -2.566234
     47          1           0        3.835164   -1.423268    3.164405
     48          1           0        6.220028    1.927610   -3.090936
     49          1           0        2.221043   -2.816461    4.572773
     50          6           0        5.236080   -0.668378   -0.890738
     51          1           0        3.395345   -1.899871    5.528981
     52          1           0        5.036469   -0.520113   -3.724369
     53          6           0        4.504745   -1.844211   -0.312284
     54          6           0        3.008698   -3.850680    0.843605
     55          1           0        7.043180    1.537986   -0.773578
     56          1           0        2.395880   -4.620622    1.313592
[...]
  Beta virt. eigenvalues --    1.72336   1.72484   1.72795   1.72916   1.73018
  Beta virt. eigenvalues --    1.73226   1.73502   1.73963   1.74148   1.74317
  Beta virt. eigenvalues --    1.74479   1.74588   1.74796   1.74975   1.75238
  Beta virt. eigenvalues --    1.75376   1.75427   1.75686   1.75982   1.76259
  Beta virt. eigenvalues --    1.76390   1.76522   1.76728   1.76977   1.77349
  Beta virt. eigenvalues --    1.77400   1.77686   1.77856   1.78220   1.78314
  Beta virt. eigenvalues --    1.78564   1.78794   1.78903   1.79220   1.79525
  Beta virt. eigenvalues --    1.79849   1.79991   1.80147   1.80534   1.80939
  Beta virt. eigenvalues --    1.81082   1.81473   1.81587   1.82027   1.82217
  Beta virt. eigenvalues --    1.82376   1.82655   1.83010   1.83247   1.83329
  Beta virt. eigenvalues --    1.83561   1.83880   1.84118   1.84368   1.84647
  Beta virt. eigenvalues --    1.85131   1.85329   1.85469   1.85868   1.85981
  Beta virt. eigenvalues --    1.86404   1.86666   1.86936   1.87248   1.87451
  Beta virt. eigenvalues --    1.87614   1.87949   1.88022   1.88470   1.88713
  Beta virt. eigenvalues --    1.89222   1.89508   1.90085   1.90377   1.90516
  Beta virt. eigenvalues --    1.90786   1.90972   1.91174   1.91595   1.91797
  Beta virt. eigenvalues --    1.92074   1.92504   1.92801   1.93193   1.93522
  Beta virt. eigenvalues --    1.93700   1.93814   1.94381   1.94838   1.94994
  Beta virt. eigenvalues --    1.95339   1.95642   1.96053   1.96318   1.97279
  Beta virt. eigenvalues --    1.97731   1.97827   1.98435   1.98532   1.98769
  Beta virt. eigenvalues --    1.99163   1.99273   1.99874   2.00136   2.00741
  Beta virt. eigenvalues --    2.01092   2.01341   2.01455   2.02026   2.02247
  Beta virt. eigenvalues --    2.02538   2.02770   2.02872   2.03262   2.03444
  Beta virt. eigenvalues --    2.03807   2.04050   2.04440   2.04517   2.04969
  Beta virt. eigenvalues --    2.05528   2.06048   2.06731   2.06766   2.07130
  Beta virt. eigenvalues --    2.07283   2.07616   2.07848   2.07936   2.08264
  Beta virt. eigenvalues --    2.08366   2.08831   2.09059   2.09472   2.09497
  Beta virt. eigenvalues --    2.10164   2.10291   2.10746   2.10980   2.11192
  Beta virt. eigenvalues --    2.11369   2.11884   2.12509   2.12658   2.12988
  Beta virt. eigenvalues --    2.13201   2.13706   2.14071   2.14571   2.14808
  Beta virt. eigenvalues --    2.15396   2.15829   2.15948   2.16727   2.17231
  Beta virt. eigenvalues --    2.17698   2.18204   2.18426   2.19404   2.19858
  Beta virt. eigenvalues --    2.20080   2.20866   2.21462   2.21606   2.22060
  Beta virt. eigenvalues --    2.22191   2.22544   2.23629   2.24423   2.24823
  Beta virt. eigenvalues --    2.25061   2.25249   2.25996   2.26171   2.26506
  Beta virt. eigenvalues --    2.27003   2.27310   2.27590   2.27899   2.27981
  Beta virt. eigenvalues --    2.28224   2.28363   2.28736   2.28782   2.29532
  Beta virt. eigenvalues --    2.30108   2.30288   2.30957   2.31596   2.32515
  Beta virt. eigenvalues --    2.32888   2.33489   2.34210   2.35451   2.35661
  Beta virt. eigenvalues --    2.36346   2.37857   2.38529   2.38756   2.40191
  Beta virt. eigenvalues --    2.40451   2.40862   2.41014   2.41504   2.41696
  Beta virt. eigenvalues --    2.42230   2.42525   2.42864   2.42936   2.43159
  Beta virt. eigenvalues --    2.43205   2.43408   2.43807   2.44141   2.44434
  Beta virt. eigenvalues --    2.44750   2.44946   2.45096   2.45705   2.46235
  Beta virt. eigenvalues --    2.46713   2.47042   2.47254   2.47496   2.47565
  Beta virt. eigenvalues --    2.48156   2.48519   2.48789   2.48893   2.49466
  Beta virt. eigenvalues --    2.49673   2.50014   2.50219   2.50912   2.51060
  Beta virt. eigenvalues --    2.51409   2.51573   2.52191   2.52217   2.52552
  Beta virt. eigenvalues --    2.53052   2.53354   2.53595   2.53938   2.54190
  Beta virt. eigenvalues --    2.54517   2.54811   2.54964   2.55424   2.55680
  Beta virt. eigenvalues --    2.55985   2.56247   2.56458   2.56971   2.57522
  Beta virt. eigenvalues --    2.57596   2.58020   2.58141   2.58308   2.58384
  Beta virt. eigenvalues --    2.58848   2.59137   2.59286   2.59502   2.59957
  Beta virt. eigenvalues --    2.60389   2.60558   2.61080   2.61571   2.61665
  Beta virt. eigenvalues --    2.61787   2.62538   2.63319   2.63664   2.64471
  Beta virt. eigenvalues --    2.65349   2.65696   2.66545   2.66753   2.67254
  Beta virt. eigenvalues --    2.67675   2.67952   2.69014   2.69166   2.69658
  Beta virt. eigenvalues --    2.70399   2.70860   2.71717   2.72503   2.72798
  Beta virt. eigenvalues --    2.73015   2.73100   2.73831   2.74629   2.75070
  Beta virt. eigenvalues --    2.75667   2.75780   2.76203   2.76521   2.76962
  Beta virt. eigenvalues --    2.78336   2.78784   2.79874   2.80213   2.80730
  Beta virt. eigenvalues --    2.81863   2.82177   2.82755   2.83411   2.84435
  Beta virt. eigenvalues --    2.84694   2.86030   2.87105   2.88229   2.89202
  Beta virt. eigenvalues --    2.90989   2.92328   2.93341   2.94543   2.95222
  Beta virt. eigenvalues --    2.96240   2.98959   3.00029   3.01207   3.02586
  Beta virt. eigenvalues --    3.03247   3.04157   3.07669   3.10965   3.11335
  Beta virt. eigenvalues --    3.12070   3.12686   3.13766   3.15237   3.16372
  Beta virt. eigenvalues --    3.18465   3.20135   3.51320   3.51800   3.58911
  Beta virt. eigenvalues --    3.60285   3.68836   3.88574   3.95594   3.99388
  Beta virt. eigenvalues --   34.84580  34.93607  34.99343  35.04391  35.04901
  Beta virt. eigenvalues --   35.10312  46.00685  46.07220
          Condensed to atoms (all electrons):
          Atomic-Atomic Spin Densities.
 Mulliken charges and spin densities:
               1          2
     1  H    0.060000  -0.000238
     2  C   -0.114482   0.008594
     3  H    0.063704   0.000421
     4  H    0.114027  -0.000277
     5  H    0.077003   0.000572
     6  O   -0.539307   0.652396
     7  H    0.073488   0.000091
     8  O   -0.517649  -0.004310
     9  H    0.226675  -0.005748
    10  C   -0.018357  -0.000322
    11  H    0.053400  -0.000027
    12  H    0.057768   0.004235
    13  C   -0.035034   0.000320
    14  H    0.114430   0.000762
    15  H    0.060581   0.000062
    16  H    0.075235   0.001175
    17  C   -0.028666   0.001353
    18  H    0.049235   0.000316
    19  H    0.112574   0.000086
    20  Ru   0.246251   0.338161
    21  H    0.108169  -0.000186
    22  N   -0.392495   0.025855
    23  C    0.116183  -0.001108
    24  C   -0.452712   0.000365
    25  H    0.051401  -0.000035
    26  H    0.066233  -0.000069
    27  C   -0.069438   0.000059
    28  C   -0.461703   0.005306
    29  P    0.225570   0.013676
    30  H    0.079274  -0.000285
    31  C    0.000645   0.001736
    32  H    0.096466   0.000340
    33  H    0.068403  -0.000052
    34  H    0.052627   0.000709
    35  C   -0.049860  -0.000828
    36  H    0.048537   0.000047
    37  C    0.017813  -0.023921
    38  C   -0.000860   0.000132
    39  H    0.069713   0.000050
    40  C   -0.030069  -0.000089
    41  H    0.046982  -0.000020
    42  H    0.055796   0.000146
    43  C    0.029933   0.002048
    44  N   -0.320503  -0.009459
    45  C   -0.079595   0.000397
    46  H    0.060392  -0.000001
    47  H    0.117423   0.000923
    48  H    0.060667  -0.000092
    49  H    0.068275  -0.000008
    50  C   -0.069912   0.001343
    51  H    0.066427   0.000114
    52  H    0.056424  -0.000050
    53  C    0.048231   0.002099
    54  C   -0.046935  -0.000663
    55  H    0.068489  -0.000024
    56  H    0.037115   0.000140
    57  H    0.124528   0.000223
    58  H    0.095949  -0.000177
    59  C   -0.045225  -0.000828
    60  C    0.083313   0.000541
    61  H    0.038736   0.000018
    62  H    0.050244  -0.000013
    63  O   -0.170293  -0.009850
    64  C   -0.094496   0.001555
    65  H    0.089126  -0.001644
    66  O   -0.367671   0.006899
    67  H    0.055237  -0.000819
    68  O   -0.565671   0.003537
    69  H    0.278117   0.004065
    70  C   -0.049157   0.000665
    71  H    0.052258   0.000392
    72  C   -0.038512   0.000778
    73  H    0.101531  -0.006023
    74  H    0.059457   0.000064
    75  C   -0.023721   0.002233
    76  H    0.044641   0.001800
    77  H    0.130042  -0.000182
    78  Ru  -0.168356   0.955348
    79  H    0.126849  -0.000089
    80  N   -0.372591  -0.004652
    81  C    0.117578   0.003550
    82  C   -0.449179  -0.003152
    83  H    0.040733  -0.000020
    84  H    0.061693   0.000037
    85  C   -0.062432  -0.000020
    86  C   -0.456355  -0.000778
    87  P    0.194084  -0.020148
    88  H    0.063698  -0.000710
    89  C    0.000958  -0.000449
    90  H    0.099853  -0.000041
    91  H    0.085658  -0.001218
    92  H    0.045076  -0.000033
    93  C    0.001384   0.000190
    94  H    0.041891  -0.000336
    95  C   -0.084872  -0.015300
    96  C   -0.002639  -0.000332
    97  H    0.067393   0.000009
    98  C   -0.030231   0.000298
    99  H    0.044581   0.000027
   100  H    0.048174  -0.000016
   101  C    0.027208  -0.004104
   102  N   -0.298976   0.069154
   103  C   -0.121170   0.001118
   104  H    0.058948   0.000004
   105  H    0.055432  -0.000273
   106  H    0.055023   0.000099
   107  H    0.067160   0.000008
   108  C   -0.090673   0.001644
   109  H    0.064499  -0.000027
   110  H    0.052983   0.000009
   111  C    0.059929  -0.004485
   112  C   -0.054304   0.006026
   113  H    0.061707  -0.000015
   114  H    0.030495   0.001435
   115  H    0.115717  -0.000357
   116  H    0.084109  -0.000907
   117  C   -0.052095   0.005203
   118  C    0.073820  -0.005436
   119  H    0.030961   0.001226
   120  H    0.043890   0.000133
   121  H    0.259152  -0.002676
   122  O   -0.234258   0.004251
   123  H    0.066045  -0.000042
   124  H    0.056744  -0.000018
   125  H    0.065030   0.000220
   126  H    0.106119  -0.000865
   127  H    0.087419  -0.000688
   128  H    0.193726  -0.002249
 Sum of Mulliken charges =  -0.00000   2.00000
 Mulliken charges and spin densities with hydrogens summed into heavy atoms:
               1          2
     2  C    0.123250   0.008500
     6  O   -0.539307   0.652396
     8  O   -0.323923  -0.006559
    10  C    0.114646   0.005088
    13  C    0.155949   0.000926
    17  C    0.208486   0.002521
    20  Ru   0.246251   0.338161
    22  N   -0.392495   0.025855
    23  C    0.308030  -0.001307
    24  C   -0.452712   0.000365
    27  C    0.150524  -0.000163
    28  C   -0.461703   0.005306
    29  P    0.225570   0.013676
    31  C    0.180172   0.002283
    35  C    0.164028   0.000435
    37  C    0.017813  -0.023921
    38  C    0.151083   0.000109
    40  C    0.163930   0.000083
    43  C    0.029933   0.002048
    44  N   -0.320503  -0.009459
    45  C    0.123509   0.000450
    50  C    0.150565   0.001389
    53  C    0.048231   0.002099
    54  C   -0.009819  -0.000523
    59  C   -0.006490  -0.000809
    60  C    0.133557   0.000527
    63  O   -0.170293  -0.009850
    64  C    0.093323   0.001716
    66  O    0.137121   0.005217
    68  O   -0.306519   0.000861
    70  C    0.144381  -0.000887
    72  C    0.162329  -0.000411
    75  C    0.177687  -0.002810
    78  Ru  -0.168356   0.955348
    80  N   -0.372591  -0.004652
    81  C    0.311319   0.002658
    82  C   -0.449179  -0.003152
    85  C    0.164098  -0.000125
    86  C   -0.456355  -0.000778
    87  P    0.194084  -0.020148
    89  C    0.162750  -0.000347
    93  C    0.156668  -0.000125
    95  C   -0.084872  -0.015300
    96  C    0.136816  -0.000632
    98  C    0.147043   0.000275
   101  C    0.027208  -0.004104
   102  N   -0.298976   0.069154
   103  C    0.096147  -0.000119
   108  C    0.109153   0.000380
   111  C    0.059929  -0.004485
   112  C   -0.023809   0.007461
   117  C   -0.021134   0.006429
   118  C    0.117710  -0.005303
   122  O   -0.234258   0.004251
 Electronic spatial extent (au):  <R**2>=          37799.9692
 Charge=             -0.0000 electrons
 Dipole moment (field-independent basis, Debye):
    X=              3.8972    Y=            -15.1856    Z=              2.0652  Tot=             15.8132
 Quadrupole moment (field-independent basis, Debye-Ang):
   XX=           -281.2907   YY=           -338.0668   ZZ=           -371.9748
   XY=            -19.3886   XZ=            -47.5901   YZ=             -7.2357
 Traceless Quadrupole moment (field-independent basis, Debye-Ang):
   XX=             49.1534   YY=             -7.6227   ZZ=            -41.5307
   XY=            -19.3886   XZ=            -47.5901   YZ=             -7.2357
 Octapole moment (field-independent basis, Debye-Ang**2):
  XXX=              5.1249  YYY=           -201.1080  ZZZ=             83.9349  XYY=            -25.0884
  XXY=           -119.4777  XXZ=             -1.5536  XZZ=             93.4845  YZZ=            -54.7196
  YYZ=             -5.1994  XYZ=            -48.2855
 Hexadecapole moment (field-independent basis, Debye-Ang**3):
 XXXX=         -27447.6191 YYYY=         -10282.9363 ZZZZ=          -9667.8107 XXXY=             57.7445
 XXXZ=          -1340.5395 YYYX=            -45.1719 YYYZ=           -107.6854 ZZZX=             81.6306
 ZZZY=             17.1563 XXYY=          -6087.1967 XXZZ=          -6852.1150 YYZZ=          -3414.9812
 XXYZ=           -223.6192 YYXZ=            -85.1563 ZZXY=             28.2554
 N-N= 1.058742762586D+04 E-N=-2.841115386834D+04  KE= 2.970686235042D+03
 1\1\GINC-NODE283\SP\UPBE1PBE TD-FC\GenECP\C40H74N4O6P2Ru2(3)\JS1212\14
 -Mar-2020\0\\# genecp pbe1pbe EmpiricalDispersion=GD3BJ scrf=(SMD,solv
 ent=water) td=nstates=25 geom=allcheck\\Title Card Required\\0,3\H,0,-
 0.0829430788,-3.7119200872,-2.3645937809\C,0,-1.0714019335,-3.42381735
 66,-1.9805898425\H,0,-1.7431147061,-4.2831612036,-2.1319834927\H,0,-1.
 4338800197,-2.5685016477,-2.5738265204\H,0,-1.2262347471,2.7254565651,
 -1.1627811506\O,0,-1.8549851589,-0.4245746277,-2.3976474366\H,0,-2.874
 0037374,2.335808004,-3.4430456823\O,0,-1.1896941486,0.17408182,0.18171
 505\H,0,-0.4913866825,0.5399602469,-2.2675758205\C,0,-0.9275198667,-3.
 0295912427,-0.5278520154\H,0,-1.3613376256,4.3168164692,-0.3783607988\
 H,0,-0.5627307164,-3.8809891608,0.0776188272\C,0,-1.931592184,3.527022
 0687,-0.8956730257\H,0,-3.5067720527,0.692403795,-3.5336156866\H,0,-2.
 3150955254,3.9638135763,-1.8298448618\H,0,-0.1825319422,-2.23075197,-0
 .4088715059\C,0,-3.8014622518,1.7516057324,-3.5365610281\H,0,-4.263140
 3741,1.9995802949,-4.5067070842\H,0,-1.0266145993,-1.5511023936,1.4867
 092753\Ru,0,-2.8775651067,-0.5219452899,-0.7731122959\H,0,-1.876198353
 9,1.6642161976,1.2199771084\N,0,-2.188575475,-2.5286215971,0.071981997
 9\C,0,-1.9401912515,-2.1657604108,1.4814570762\C,0,-3.0628953783,3.059
 3298055,0.0221811994\H,0,-1.8445919856,3.3808103409,1.757469144\H,0,-4
 .3071559015,4.2280292121,-2.4915120712\C,0,-2.4820480809,2.57412081,1.
 3572993126\C,0,-4.7937843334,2.0852115779,-2.4166239705\P,0,-3.9278267
 647,1.5709410864,-0.7961947883\H,0,-1.7593075182,-3.0572199068,2.10429
 61748\C,0,-5.1784323447,3.5615002997,-2.5103263937\H,0,-3.5324707189,-
 3.6539894044,-1.0688332462\H,0,-2.1721967174,-5.4180545799,0.093538956
 6\H,0,-5.6846894013,3.7168536259,-3.4774676695\C,0,-3.2798798814,-3.53
 2811757,-0.0091773173\H,0,-3.4516878331,4.9201509468,1.0024739473\C,0,
 -4.2668284467,-1.3260177048,-1.6648689342\C,0,-4.0009708404,4.22889388
 88,0.3421728364\H,0,-5.936612436,0.1947805612,-2.5253840961\C,0,-6.081
 4760283,1.2776347883,-2.5971444635\H,0,-4.3127850285,4.800664835,-0.53
 68214445\H,0,-6.4739482866,1.4826194902,-3.6066358842\C,0,-3.070390054
 5,-1.3518311153,2.0393732907\N,0,-3.6935161425,-0.552735062,1.15441450
 9\C,0,-2.9974539693,-4.897591635,0.600196463\H,0,-3.2737303846,2.39023
 69943,2.1003228534\H,0,-4.1624707142,-3.0834059065,0.4699362965\H,0,-5
 .8797620595,3.866270859,-1.7205330343\H,0,-2.7655912283,-4.8518410637,
 1.6746092838\C,0,-5.2658003455,1.1306934263,0.4446101616\H,0,-3.897385
 3621,-5.5208558977,0.4893178512\H,0,-4.9011910141,3.9157998234,0.89353
 41867\C,0,-4.6812989341,0.2798843448,1.533887775\C,0,-3.4463512751,-1.
 3547527021,3.378616406\H,0,-6.8593561833,1.5827397557,-1.879956473\H,0
 ,-2.9353755929,-2.0106328827,4.0842843774\H,0,-5.9956164403,0.52526678
 59,-0.1166736068\H,0,-5.7967020053,2.0005709798,0.8555772629\C,0,-5.09
 43395405,0.322226813,2.8632079386\C,0,-4.4686990284,-0.5047594185,3.79
 26677589\H,0,-5.8921665797,1.0026944461,3.1622000652\H,0,-4.7775045806
 ,-0.4850877775,4.8393215249\O,0,-5.0786374417,-1.909722485,-2.25850508
 4\C,0,-0.1473534539,0.9281367054,4.2107114835\H,0,1.2900469986,-1.2724
 022713,-2.0816062495\O,0,0.1665939944,1.2735828747,-2.0840123424\H,0,2
 .4325779561,1.446736926,-3.1726250055\O,0,1.2688720217,-0.9666333848,0
 .622644665\H,0,0.8963209601,0.8599155773,-1.5941606203\C,0,0.521707328
 2,1.0414285265,2.8484035607\H,0,1.7574153798,-2.5664919516,-3.21279684
 68\C,0,2.0874802835,-1.6209912504,-2.7511940786\H,0,3.0546718641,2.542
 4747294,-1.9357240558\H,0,2.2050163777,-0.885487678,-3.5606469937\C,0,
 3.3351433954,1.9735441822,-2.8319855009\H,0,3.6308488168,2.6870867937,
 -3.6197961772\H,0,1.5428252993,-1.2450489767,2.7337281945\Ru,0,2.68801
 68201,0.5664194747,0.5894639446\H,0,2.3712095537,-2.3756074359,-0.1081
 679306\N,0,1.9746466571,0.7704238194,2.7948609325\C,0,2.2563305193,-0.
 5983562449,3.2727684008\C,0,3.382586092,-1.8597429993,-1.9760710864\H,
 0,2.6760607927,-3.7458035143,-1.2296060638\H,0,4.1176408003,-0.1321568
 341,-4.3777517096\C,0,3.0987134068,-2.8159621672,-0.8093263085\C,0,4.5
 069978929,1.0270959501,-2.5537374782\P,0,3.9037251174,-0.1957750843,-1
 .2004179037\H,0,2.1182710638,-0.6847240746,4.3648547688\C,0,4.94160809
 83,0.3871481594,-3.8709803341\H,0,3.8216076969,1.5625649685,3.32601101
 75\H,0,2.3636381028,3.4508829265,2.3340048699\H,0,5.2823212178,1.19048
 34046,-4.5458904702\C,0,2.7678305468,1.7271311136,3.5971001241\H,0,4.1
 132019745,-3.5795561741,-3.027900635\C,0,3.6075221804,2.139316478,0.57
 58535904\C,0,4.4242006252,-2.5322906651,-2.875719283\H,0,5.5119997802,
 2.2978999913,-1.0526769525\C,0,5.6967866126,1.8383708876,-2.0312611139
 \H,0,4.5114761236,-2.0742053634,-3.8659027632\H,0,5.8911456945,2.65926
 28428,-2.7416620577\C,0,3.6242479819,-1.0860849556,2.8851771074\N,0,4.
 0158183061,-0.7296088184,1.6552994524\C,0,2.4025366385,3.1843262654,3.
 3978844589\H,0,4.0223506759,-3.0964174097,-0.2780007683\H,0,2.66973957
 01,1.4701252509,4.6709002047\H,0,5.7799436657,-0.3121948079,-3.7446049
 208\H,0,1.4363625606,3.4360818845,3.8592086068\C,0,5.4716045291,-0.677
 7267454,-0.2638705343\H,0,3.1707697878,3.8139853942,3.8702054007\H,0,5
 .4254247581,-2.5628601059,-2.4184304802\C,0,5.1556539881,-1.1836284424
 ,1.1130582644\C,0,4.4110587209,-1.9271461003,3.6657434198\H,0,6.614397
 7022,1.2322470725,-1.9789578089\H,0,4.0910848498,-2.2036181178,4.67144
 80508\H,0,6.0291744956,0.2649058912,-0.1476212554\H,0,6.1225323144,-1.
 3781712764,-0.807802854\C,0,5.9771979203,-2.0489384317,1.8366634863\C,
 0,5.6005988749,-2.4150045312,3.1261198969\H,0,6.9010049382,-2.42381492
 8,1.3938948682\H,0,6.235317227,-3.0825671432,3.7121627691\H,0,0.405349
 0117,-0.5621992274,0.3933730766\O,0,4.1449690705,3.1843148521,0.593848
 4574\H,0,-1.2128522218,1.181677148,4.0982251175\H,0,0.2791723572,1.611
 5141711,4.9620523904\H,0,-0.1002948952,-0.0945536709,4.61627264\H,0,0.
 0518095897,0.358888709,2.1297091626\H,0,0.373583742,2.0477200133,2.437
 1941762\H,0,-0.7566124106,0.764183818,-0.4580663812\\Version=ES64L-G16
 RevA.03\State=3-A\HF=-3109.3199373\S2=2.01571\S2-1=0.\S2A=2.000144\RMS
 D=1.873e-09\PG=C01 [X(C40H74N4O6P2Ru2)]\\@


 THE WISE MAN HAS THE POWER TO REASON AWAY
 WHAT A FOOL BELIEVES.
                     - DOOBIE BROTHERS
 Job cpu time:      21 days  4 hours 43 minutes 31.8 seconds.
 Elapsed time:       1 days  1 hours 27 minutes 39.3 seconds.
 File lengths (MBytes):  RWF=  18286 Int=      0 D2E=      0 Chk=   1436 Scr=      1
 Normal termination of Gaussian 16 at Sat Mar 14 23:31:49 2020.
