 Entering Gaussian System, Link 0=g16
 Initial command:
 /cluster/chemistry/gaussian/g16/l1.exe "/scratch/js1212.15458/scratch/Gau-12658.inp" -scrdir="/scratch/js1212.15458/scratch/"
 Entering Link 1 = /cluster/chemistry/gaussian/g16/l1.exe PID=     12659.
  
 Copyright (c) 1988,1990,1992,1993,1995,1998,2003,2009,2016,
            Gaussian, Inc.  All Rights Reserved.
  
 This is part of the Gaussian(R) 16 program.  It is based on
 the Gaussian(R) 09 system (copyright 2009, Gaussian, Inc.),
 the Gaussian(R) 03 system (copyright 2003, Gaussian, Inc.),
 the Gaussian(R) 98 system (copyright 1998, Gaussian, Inc.),
 the Gaussian(R) 94 system (copyright 1995, Gaussian, Inc.),
 the Gaussian 92(TM) system (copyright 1992, Gaussian, Inc.),
 the Gaussian 90(TM) system (copyright 1990, Gaussian, Inc.),
 the Gaussian 88(TM) system (copyright 1988, Gaussian, Inc.),
 the Gaussian 86(TM) system (copyright 1986, Carnegie Mellon
 University), and the Gaussian 82(TM) system (copyright 1983,
 Carnegie Mellon University). Gaussian is a federally registered
 trademark of Gaussian, Inc.
  
 This software contains proprietary and confidential information,
 including trade secrets, belonging to Gaussian, Inc.
  
 This software is provided under written license and may be
 used, copied, transmitted, or stored only in accord with that
 written license.
  
 The following legend is applicable only to US Government
 contracts under FAR:
  
                    RESTRICTED RIGHTS LEGEND
  
 Use, reproduction and disclosure by the US Government is
 subject to restrictions as set forth in subparagraphs (a)
 and (c) of the Commercial Computer Software - Restricted
 Rights clause in FAR 52.227-19.
  
 Gaussian, Inc.
 340 Quinnipiac St., Bldg. 40, Wallingford CT 06492
  
  
 ---------------------------------------------------------------
 Warning -- This program may not be used in any manner that
 competes with the business of Gaussian, Inc. or will provide
 assistance to any competitor of Gaussian, Inc.  The licensee
 of this program is prohibited from giving any competitor of
 Gaussian, Inc. access to this program.  By using this program,
 the user acknowledges that Gaussian, Inc. is engaged in the
 business of creating and licensing software in the field of
 computational chemistry and represents and warrants to the
 licensee that it is not a competitor of Gaussian, Inc. and that
 it will not use this program in any manner prohibited above.
 ---------------------------------------------------------------
  

 Cite this work as:
 Gaussian 16, Revision A.03,
 M. J. Frisch, G. W. Trucks, H. B. Schlegel, G. E. Scuseria, 
 M. A. Robb, J. R. Cheeseman, G. Scalmani, V. Barone, 
 G. A. Petersson, H. Nakatsuji, X. Li, M. Caricato, A. V. Marenich, 
 J. Bloino, B. G. Janesko, R. Gomperts, B. Mennucci, H. P. Hratchian, 
 J. V. Ortiz, A. F. Izmaylov, J. L. Sonnenberg, D. Williams-Young, 
 F. Ding, F. Lipparini, F. Egidi, J. Goings, B. Peng, A. Petrone, 
 T. Henderson, D. Ranasinghe, V. G. Zakrzewski, J. Gao, N. Rega, 
 G. Zheng, W. Liang, M. Hada, M. Ehara, K. Toyota, R. Fukuda, 
 J. Hasegawa, M. Ishida, T. Nakajima, Y. Honda, O. Kitao, H. Nakai, 
 T. Vreven, K. Throssell, J. A. Montgomery, Jr., J. E. Peralta, 
 F. Ogliaro, M. J. Bearpark, J. J. Heyd, E. N. Brothers, K. N. Kudin, 
 V. N. Staroverov, T. A. Keith, R. Kobayashi, J. Normand, 
 K. Raghavachari, A. P. Rendell, J. C. Burant, S. S. Iyengar, 
 J. Tomasi, M. Cossi, J. M. Millam, M. Klene, C. Adamo, R. Cammi, 
 J. W. Ochterski, R. L. Martin, K. Morokuma, O. Farkas, 
 J. B. Foresman, and D. J. Fox, Gaussian, Inc., Wallingford CT, 2016.
 
 ******************************************
 Gaussian 16:  ES64L-G16RevA.03 25-Dec-2016
                12-Nov-2018 
 ******************************************
 %rwf=/scratch/js1212.15458/2-Full-TPy-A-GPOF.rwf
 %nosave
 %nprocshared=20
 Will use up to   20 processors via shared memory.
 %mem=3000MB
 %chk=/scratch/js1212.15458/2-Full-TPy-A-GPOF.chk
 ---------------------------------------------------
 # opt freq genecp pbe1pbe EmpiricalDispersion=GD3BJ
 ---------------------------------------------------
 1/18=20,19=15,26=3,38=1/1,3;
 2/9=110,12=2,17=6,18=5,40=1/2;
 3/5=7,11=2,16=1,17=8,25=1,30=1,71=1,74=-13,124=41/1,2,3;
 4//1;
 5/5=2,38=5/2;
 6/7=2,8=2,9=2,10=2,28=1/1;
 7//1,2,3,16;
 1/18=20,19=15,26=3/3(2);
 2/9=110/2;
 99//99;
 2/9=110/2;
 3/5=7,6=1,11=2,16=1,17=8,25=1,30=1,71=1,74=-13,82=7,124=41/1,2,3;
 4/5=5,16=3,69=1/1;
 5/5=2,38=5/2;
 7//1,2,3,16;
 1/18=20,19=15,26=3/3(-5);
 2/9=110/2;
 6/7=2,8=2,9=2,10=2,19=2,28=1/1;
 99/9=1/99;
 -------------------
 Title Card Required
 -------------------
 Symbolic Z-matrix:
 Charge =  0 Multiplicity = 1
 N                    -0.76649   1.41843  -0.07154 
 C                    -2.01036   1.85279   0.2167 
 C                     0.14794   2.26376  -0.59987 
 C                    -2.37124   3.18384   0.05372 
 C                    -1.41729   4.08485  -0.41404 
 C                    -0.15168   3.61575  -0.7532 
 C                    -2.92299   0.78241   0.73207 
 H                    -3.38574   3.50509   0.29284 
 H                    -1.66577   5.14026  -0.53683 
 H                     0.60447   4.28902  -1.15894 
 C                     1.43193   1.64925  -1.06883 
 N                    -2.68842  -0.50404   0.0448 
 H                    -3.97678   1.10586   0.66433 
 H                    -2.69735   0.61853   1.79906 
 H                     1.29444   1.38772  -2.13247 
 P                     1.73612  -0.00383  -0.23635 
 H                     2.26951   2.35979  -1.00852 
 Ru                   -0.40632  -0.58507   0.12753 
 C                    -3.13183  -0.4363   -1.37016 
 C                     2.76388  -0.97221  -1.51 
 C                    -3.38459  -1.5738    0.79678 
 C                     2.81626   0.48715   1.25846 
 C                     1.79173  -1.5453   -2.54607 
 C                     3.42342  -2.15521  -0.79768 
 C                     3.81352  -0.12407  -2.23086 
 C                     2.06226   1.60908   1.98221 
 C                     4.20708   1.00144   0.88987 
 C                     2.94913  -0.70018   2.21525 
 H                    -0.22466  -2.20914  -0.10236 
 H                    -2.58034   0.39612  -1.82922 
 C                    -4.62669  -0.27589  -1.60563 
 H                    -2.75557  -1.34493  -1.85563 
 H                    -2.93436  -1.5837    1.80041 
 C                    -3.24221  -2.94035   0.16087 
 H                    -4.45015  -1.29713   0.92821 
 C                    -0.3756   -0.45303  -1.76382 
 O                    -0.42402  -0.72648   2.2113 
 H                    -0.49661  -1.64963   2.4801 
 H                    -2.17636  -3.12248  -0.07293 
 H                    -3.84319  -3.03847  -0.75619 
 H                    -3.59904  -3.70383   0.86859 
 H                    -4.80781  -0.21749  -2.68943 
 H                    -5.03495   0.6451   -1.16155 
 H                    -5.20838  -1.12709  -1.2223 
 H                     2.37599  -2.14707  -3.26386 
 H                     1.27463  -0.75585  -3.11162 
 H                     1.03384  -2.17538  -2.0557 
 H                     3.86573  -2.82409  -1.55452 
 H                     2.67531  -2.73449  -0.23591 
 H                     4.23239  -1.84668  -0.12066 
 H                     4.32954  -0.7589   -2.97077 
 H                     4.57883   0.28829  -1.56235 
 H                     3.35837   0.70854  -2.78858 
 H                     4.85268   0.20776   0.48993 
 H                     4.69648   1.39306   1.79777 
 H                     4.17387   1.82343   0.15832 
 H                     3.52252  -1.52815   1.78067 
 H                     1.9698   -1.08747   2.52084 
 H                     3.47731  -0.36929   3.12537 
 H                     2.57082   1.82424   2.93635 
 H                     1.02509   1.32521   2.2088 
 H                     2.04757   2.54327   1.40092 
 O                    -0.39562  -0.30919  -2.91791 
 

 GradGradGradGradGradGradGradGradGradGradGradGradGradGradGradGradGradGrad
 Berny optimization.
 Initialization pass.
                           ----------------------------
                           !    Initial Parameters    !
                           ! (Angstroms and Degrees)  !
 --------------------------                            --------------------------
 ! Name  Definition              Value          Derivative Info.                !
 --------------------------------------------------------------------------------
 ! R1    R(1,2)                  1.3487         estimate D2E/DX2                !
 ! R2    R(1,3)                  1.3527         estimate D2E/DX2                !
 ! R3    R(1,18)                 2.0453         estimate D2E/DX2                !
 ! R4    R(2,4)                  1.3887         estimate D2E/DX2                !
 ! R5    R(2,7)                  1.4981         estimate D2E/DX2                !
 ! R6    R(3,6)                  1.3933         estimate D2E/DX2                !
 ! R7    R(3,11)                 1.4987         estimate D2E/DX2                !
 ! R8    R(4,5)                  1.3931         estimate D2E/DX2                !
 ! R9    R(4,8)                  1.0907         estimate D2E/DX2                !
 ! R10   R(5,6)                  1.3917         estimate D2E/DX2                !
 ! R11   R(5,9)                  1.0912         estimate D2E/DX2                !
 ! R12   R(6,10)                 1.0907         estimate D2E/DX2                !
 ! R13   R(7,12)                 1.4773         estimate D2E/DX2                !
 ! R14   R(7,13)                 1.1044         estimate D2E/DX2                !
 ! R15   R(7,14)                 1.1028         estimate D2E/DX2                !
 ! R16   R(11,15)                1.1039         estimate D2E/DX2                !
 ! R17   R(11,16)                1.8757         estimate D2E/DX2                !
 ! R18   R(11,17)                1.1            estimate D2E/DX2                !
 ! R19   R(12,19)                1.4844         estimate D2E/DX2                !
 ! R20   R(12,21)                1.4814         estimate D2E/DX2                !
 ! R21   R(16,18)                2.2495         estimate D2E/DX2                !
 ! R22   R(16,20)                1.9016         estimate D2E/DX2                !
 ! R23   R(16,22)                1.9085         estimate D2E/DX2                !
 ! R24   R(18,29)                1.6503         estimate D2E/DX2                !
 ! R25   R(18,36)                1.8962         estimate D2E/DX2                !
 ! R26   R(18,37)                2.0886         estimate D2E/DX2                !
 ! R27   R(19,30)                1.099          estimate D2E/DX2                !
 ! R28   R(19,31)                1.5218         estimate D2E/DX2                !
 ! R29   R(19,32)                1.0968         estimate D2E/DX2                !
 ! R30   R(20,23)                1.532          estimate D2E/DX2                !
 ! R31   R(20,24)                1.5303         estimate D2E/DX2                !
 ! R32   R(20,25)                1.5299         estimate D2E/DX2                !
 ! R33   R(21,33)                1.1            estimate D2E/DX2                !
 ! R34   R(21,34)                1.514          estimate D2E/DX2                !
 ! R35   R(21,35)                1.1087         estimate D2E/DX2                !
 ! R36   R(22,26)                1.5333         estimate D2E/DX2                !
 ! R37   R(22,27)                1.528          estimate D2E/DX2                !
 ! R38   R(22,28)                1.5306         estimate D2E/DX2                !
 ! R39   R(23,45)                1.104          estimate D2E/DX2                !
 ! R40   R(23,46)                1.1002         estimate D2E/DX2                !
 ! R41   R(23,47)                1.1008         estimate D2E/DX2                !
 ! R42   R(24,48)                1.1027         estimate D2E/DX2                !
 ! R43   R(24,49)                1.1004         estimate D2E/DX2                !
 ! R44   R(24,50)                1.0991         estimate D2E/DX2                !
 ! R45   R(25,51)                1.1031         estimate D2E/DX2                !
 ! R46   R(25,52)                1.0967         estimate D2E/DX2                !
 ! R47   R(25,53)                1.1007         estimate D2E/DX2                !
 ! R48   R(26,60)                1.1024         estimate D2E/DX2                !
 ! R49   R(26,61)                1.0989         estimate D2E/DX2                !
 ! R50   R(26,62)                1.1004         estimate D2E/DX2                !
 ! R51   R(27,54)                1.0985         estimate D2E/DX2                !
 ! R52   R(27,55)                1.1033         estimate D2E/DX2                !
 ! R53   R(27,56)                1.1009         estimate D2E/DX2                !
 ! R54   R(28,57)                1.0969         estimate D2E/DX2                !
 ! R55   R(28,58)                1.0966         estimate D2E/DX2                !
 ! R56   R(28,59)                1.1031         estimate D2E/DX2                !
 ! R57   R(31,42)                1.1004         estimate D2E/DX2                !
 ! R58   R(31,43)                1.101          estimate D2E/DX2                !
 ! R59   R(31,44)                1.0999         estimate D2E/DX2                !
 ! R60   R(34,39)                1.1063         estimate D2E/DX2                !
 ! R61   R(34,40)                1.1008         estimate D2E/DX2                !
 ! R62   R(34,41)                1.1005         estimate D2E/DX2                !
 ! R63   R(36,63)                1.1632         estimate D2E/DX2                !
 ! R64   R(37,38)                0.9642         estimate D2E/DX2                !
 ! A1    A(2,1,3)              120.3753         estimate D2E/DX2                !
 ! A2    A(2,1,18)             117.199          estimate D2E/DX2                !
 ! A3    A(3,1,18)             122.0798         estimate D2E/DX2                !
 ! A4    A(1,2,4)              121.5525         estimate D2E/DX2                !
 ! A5    A(1,2,7)              113.9078         estimate D2E/DX2                !
 ! A6    A(4,2,7)              124.5347         estimate D2E/DX2                !
 ! A7    A(1,3,6)              120.2654         estimate D2E/DX2                !
 ! A8    A(1,3,11)             116.4308         estimate D2E/DX2                !
 ! A9    A(6,3,11)             123.208          estimate D2E/DX2                !
 ! A10   A(2,4,5)              118.7758         estimate D2E/DX2                !
 ! A11   A(2,4,8)              119.8876         estimate D2E/DX2                !
 ! A12   A(5,4,8)              121.3366         estimate D2E/DX2                !
 ! A13   A(4,5,6)              119.1145         estimate D2E/DX2                !
 ! A14   A(4,5,9)              120.4921         estimate D2E/DX2                !
 ! A15   A(6,5,9)              120.3759         estimate D2E/DX2                !
 ! A16   A(3,6,5)              119.7245         estimate D2E/DX2                !
 ! A17   A(3,6,10)             119.3958         estimate D2E/DX2                !
 ! A18   A(5,6,10)             120.8661         estimate D2E/DX2                !
 ! A19   A(2,7,12)             111.4341         estimate D2E/DX2                !
 ! A20   A(2,7,13)             110.5441         estimate D2E/DX2                !
 ! A21   A(2,7,14)             108.323          estimate D2E/DX2                !
 ! A22   A(12,7,13)            112.2111         estimate D2E/DX2                !
 ! A23   A(12,7,14)            106.7513         estimate D2E/DX2                !
 ! A24   A(13,7,14)            107.343          estimate D2E/DX2                !
 ! A25   A(3,11,15)            106.9733         estimate D2E/DX2                !
 ! A26   A(3,11,16)            111.1876         estimate D2E/DX2                !
 ! A27   A(3,11,17)            111.7356         estimate D2E/DX2                !
 ! A28   A(15,11,16)           103.8297         estimate D2E/DX2                !
 ! A29   A(15,11,17)           107.4989         estimate D2E/DX2                !
 ! A30   A(16,11,17)           114.9265         estimate D2E/DX2                !
 ! A31   A(7,12,19)            110.8735         estimate D2E/DX2                !
 ! A32   A(7,12,21)            108.5466         estimate D2E/DX2                !
 ! A33   A(19,12,21)           112.1145         estimate D2E/DX2                !
 ! A34   A(11,16,18)            98.3405         estimate D2E/DX2                !
 ! A35   A(11,16,20)           103.8386         estimate D2E/DX2                !
 ! A36   A(11,16,22)           102.2796         estimate D2E/DX2                !
 ! A37   A(18,16,20)           119.4391         estimate D2E/DX2                !
 ! A38   A(18,16,22)           118.6077         estimate D2E/DX2                !
 ! A39   A(20,16,22)           110.47           estimate D2E/DX2                !
 ! A40   A(1,18,16)             84.1956         estimate D2E/DX2                !
 ! A41   A(1,18,36)             80.6516         estimate D2E/DX2                !
 ! A42   A(1,18,37)             99.3189         estimate D2E/DX2                !
 ! A43   A(16,18,29)            97.291          estimate D2E/DX2                !
 ! A44   A(16,18,36)            78.7688         estimate D2E/DX2                !
 ! A45   A(16,18,37)           100.7747         estimate D2E/DX2                !
 ! A46   A(29,18,36)            85.8595         estimate D2E/DX2                !
 ! A47   A(29,18,37)            94.2025         estimate D2E/DX2                !
 ! A48   A(12,19,30)           106.4299         estimate D2E/DX2                !
 ! A49   A(12,19,31)           116.4714         estimate D2E/DX2                !
 ! A50   A(12,19,32)           106.3593         estimate D2E/DX2                !
 ! A51   A(30,19,31)           110.3933         estimate D2E/DX2                !
 ! A52   A(30,19,32)           105.6919         estimate D2E/DX2                !
 ! A53   A(31,19,32)           110.8449         estimate D2E/DX2                !
 ! A54   A(16,20,23)           107.4874         estimate D2E/DX2                !
 ! A55   A(16,20,24)           108.3506         estimate D2E/DX2                !
 ! A56   A(16,20,25)           113.8324         estimate D2E/DX2                !
 ! A57   A(23,20,24)           107.4037         estimate D2E/DX2                !
 ! A58   A(23,20,25)           108.9103         estimate D2E/DX2                !
 ! A59   A(24,20,25)           110.6205         estimate D2E/DX2                !
 ! A60   A(12,21,33)           106.0984         estimate D2E/DX2                !
 ! A61   A(12,21,34)           113.229          estimate D2E/DX2                !
 ! A62   A(12,21,35)           109.3675         estimate D2E/DX2                !
 ! A63   A(33,21,34)           109.67           estimate D2E/DX2                !
 ! A64   A(33,21,35)           106.7053         estimate D2E/DX2                !
 ! A65   A(34,21,35)           111.4333         estimate D2E/DX2                !
 ! A66   A(16,22,26)           106.2384         estimate D2E/DX2                !
 ! A67   A(16,22,27)           114.3819         estimate D2E/DX2                !
 ! A68   A(16,22,28)           109.8266         estimate D2E/DX2                !
 ! A69   A(26,22,27)           108.3722         estimate D2E/DX2                !
 ! A70   A(26,22,28)           108.3742         estimate D2E/DX2                !
 ! A71   A(27,22,28)           109.4426         estimate D2E/DX2                !
 ! A72   A(20,23,45)           107.9267         estimate D2E/DX2                !
 ! A73   A(20,23,46)           112.1769         estimate D2E/DX2                !
 ! A74   A(20,23,47)           110.4711         estimate D2E/DX2                !
 ! A75   A(45,23,46)           107.7975         estimate D2E/DX2                !
 ! A76   A(45,23,47)           109.9987         estimate D2E/DX2                !
 ! A77   A(46,23,47)           108.4268         estimate D2E/DX2                !
 ! A78   A(20,24,48)           108.8035         estimate D2E/DX2                !
 ! A79   A(20,24,49)           110.5842         estimate D2E/DX2                !
 ! A80   A(20,24,50)           112.7642         estimate D2E/DX2                !
 ! A81   A(48,24,49)           107.6854         estimate D2E/DX2                !
 ! A82   A(48,24,50)           107.3277         estimate D2E/DX2                !
 ! A83   A(49,24,50)           109.4944         estimate D2E/DX2                !
 ! A84   A(20,25,51)           108.539          estimate D2E/DX2                !
 ! A85   A(20,25,52)           113.5786         estimate D2E/DX2                !
 ! A86   A(20,25,53)           111.987          estimate D2E/DX2                !
 ! A87   A(51,25,52)           107.3879         estimate D2E/DX2                !
 ! A88   A(51,25,53)           106.7929         estimate D2E/DX2                !
 ! A89   A(52,25,53)           108.2418         estimate D2E/DX2                !
 ! A90   A(22,26,60)           108.9347         estimate D2E/DX2                !
 ! A91   A(22,26,61)           111.8652         estimate D2E/DX2                !
 ! A92   A(22,26,62)           112.2353         estimate D2E/DX2                !
 ! A93   A(60,26,61)           107.8994         estimate D2E/DX2                !
 ! A94   A(60,26,62)           107.3182         estimate D2E/DX2                !
 ! A95   A(61,26,62)           108.3987         estimate D2E/DX2                !
 ! A96   A(22,27,54)           112.3088         estimate D2E/DX2                !
 ! A97   A(22,27,55)           108.9499         estimate D2E/DX2                !
 ! A98   A(22,27,56)           112.5912         estimate D2E/DX2                !
 ! A99   A(54,27,55)           107.1801         estimate D2E/DX2                !
 ! A100  A(54,27,56)           108.3773         estimate D2E/DX2                !
 ! A101  A(55,27,56)           107.1688         estimate D2E/DX2                !
 ! A102  A(22,28,57)           112.5353         estimate D2E/DX2                !
 ! A103  A(22,28,58)           111.7551         estimate D2E/DX2                !
 ! A104  A(22,28,59)           108.9427         estimate D2E/DX2                !
 ! A105  A(57,28,58)           108.0995         estimate D2E/DX2                !
 ! A106  A(57,28,59)           107.6387         estimate D2E/DX2                !
 ! A107  A(58,28,59)           107.6766         estimate D2E/DX2                !
 ! A108  A(19,31,42)           108.6438         estimate D2E/DX2                !
 ! A109  A(19,31,43)           112.9565         estimate D2E/DX2                !
 ! A110  A(19,31,44)           112.5812         estimate D2E/DX2                !
 ! A111  A(42,31,43)           106.9686         estimate D2E/DX2                !
 ! A112  A(42,31,44)           107.2942         estimate D2E/DX2                !
 ! A113  A(43,31,44)           108.1008         estimate D2E/DX2                !
 ! A114  A(21,34,39)           109.1459         estimate D2E/DX2                !
 ! A115  A(21,34,40)           112.2733         estimate D2E/DX2                !
 ! A116  A(21,34,41)           109.0016         estimate D2E/DX2                !
 ! A117  A(39,34,40)           109.5878         estimate D2E/DX2                !
 ! A118  A(39,34,41)           109.517          estimate D2E/DX2                !
 ! A119  A(40,34,41)           107.2706         estimate D2E/DX2                !
 ! A120  A(18,37,38)           110.0953         estimate D2E/DX2                !
 ! A121  L(1,18,29,16,-1)      181.4866         estimate D2E/DX2                !
 ! A122  L(36,18,37,1,-1)      179.9705         estimate D2E/DX2                !
 ! A123  L(18,36,63,3,-1)      177.2915         estimate D2E/DX2                !
 ! A124  L(1,18,29,16,-2)      194.1284         estimate D2E/DX2                !
 ! A125  L(36,18,37,1,-2)      180.4616         estimate D2E/DX2                !
 ! A126  L(18,36,63,3,-2)      182.5681         estimate D2E/DX2                !
 ! D1    D(3,1,2,4)             -3.6028         estimate D2E/DX2                !
 ! D2    D(3,1,2,7)            177.1681         estimate D2E/DX2                !
 ! D3    D(18,1,2,4)          -176.9893         estimate D2E/DX2                !
 ! D4    D(18,1,2,7)             3.7816         estimate D2E/DX2                !
 ! D5    D(2,1,3,6)              5.0964         estimate D2E/DX2                !
 ! D6    D(2,1,3,11)          -171.459          estimate D2E/DX2                !
 ! D7    D(18,1,3,6)           178.1526         estimate D2E/DX2                !
 ! D8    D(18,1,3,11)            1.5972         estimate D2E/DX2                !
 ! D9    D(2,1,18,16)         -171.8664         estimate D2E/DX2                !
 ! D10   D(2,1,18,36)          108.6008         estimate D2E/DX2                !
 ! D11   D(2,1,18,37)          -71.8608         estimate D2E/DX2                !
 ! D12   D(3,1,18,16)           14.8681         estimate D2E/DX2                !
 ! D13   D(3,1,18,36)          -64.6648         estimate D2E/DX2                !
 ! D14   D(3,1,18,37)          114.8736         estimate D2E/DX2                !
 ! D15   D(1,2,4,5)             -0.2582         estimate D2E/DX2                !
 ! D16   D(1,2,4,8)            179.845          estimate D2E/DX2                !
 ! D17   D(7,2,4,5)            178.8864         estimate D2E/DX2                !
 ! D18   D(7,2,4,8)             -1.0105         estimate D2E/DX2                !
 ! D19   D(1,2,7,12)           -37.5762         estimate D2E/DX2                !
 ! D20   D(1,2,7,13)          -163.084          estimate D2E/DX2                !
 ! D21   D(1,2,7,14)            79.5647         estimate D2E/DX2                !
 ! D22   D(4,2,7,12)           143.2212         estimate D2E/DX2                !
 ! D23   D(4,2,7,13)            17.7134         estimate D2E/DX2                !
 ! D24   D(4,2,7,14)           -99.6379         estimate D2E/DX2                !
 ! D25   D(1,3,6,5)             -2.7603         estimate D2E/DX2                !
 ! D26   D(1,3,6,10)           178.5663         estimate D2E/DX2                !
 ! D27   D(11,3,6,5)           173.5527         estimate D2E/DX2                !
 ! D28   D(11,3,6,10)           -5.1206         estimate D2E/DX2                !
 ! D29   D(1,3,11,15)           90.9456         estimate D2E/DX2                !
 ! D30   D(1,3,11,16)          -21.7822         estimate D2E/DX2                !
 ! D31   D(1,3,11,17)         -151.6591         estimate D2E/DX2                !
 ! D32   D(6,3,11,15)          -85.4984         estimate D2E/DX2                !
 ! D33   D(6,3,11,16)          161.7738         estimate D2E/DX2                !
 ! D34   D(6,3,11,17)           31.8969         estimate D2E/DX2                !
 ! D35   D(2,4,5,6)              2.5275         estimate D2E/DX2                !
 ! D36   D(2,4,5,9)           -178.9869         estimate D2E/DX2                !
 ! D37   D(8,4,5,6)           -177.5772         estimate D2E/DX2                !
 ! D38   D(8,4,5,9)              0.9084         estimate D2E/DX2                !
 ! D39   D(4,5,6,3)             -1.0572         estimate D2E/DX2                !
 ! D40   D(4,5,6,10)           177.5963         estimate D2E/DX2                !
 ! D41   D(9,5,6,3)           -179.5446         estimate D2E/DX2                !
 ! D42   D(9,5,6,10)            -0.8912         estimate D2E/DX2                !
 ! D43   D(2,7,12,19)          -69.2059         estimate D2E/DX2                !
 ! D44   D(2,7,12,21)          167.2272         estimate D2E/DX2                !
 ! D45   D(13,7,12,19)          55.3714         estimate D2E/DX2                !
 ! D46   D(13,7,12,21)         -68.1955         estimate D2E/DX2                !
 ! D47   D(14,7,12,19)         172.7038         estimate D2E/DX2                !
 ! D48   D(14,7,12,21)          49.1369         estimate D2E/DX2                !
 ! D49   D(3,11,16,18)          28.1994         estimate D2E/DX2                !
 ! D50   D(3,11,16,20)         151.4099         estimate D2E/DX2                !
 ! D51   D(3,11,16,22)         -93.615          estimate D2E/DX2                !
 ! D52   D(15,11,16,18)        -86.5001         estimate D2E/DX2                !
 ! D53   D(15,11,16,20)         36.7104         estimate D2E/DX2                !
 ! D54   D(15,11,16,22)        151.6854         estimate D2E/DX2                !
 ! D55   D(17,11,16,18)        156.3782         estimate D2E/DX2                !
 ! D56   D(17,11,16,20)        -80.4113         estimate D2E/DX2                !
 ! D57   D(17,11,16,22)         34.5637         estimate D2E/DX2                !
 ! D58   D(7,12,19,30)          57.1332         estimate D2E/DX2                !
 ! D59   D(7,12,19,31)         -66.4183         estimate D2E/DX2                !
 ! D60   D(7,12,19,32)         169.494          estimate D2E/DX2                !
 ! D61   D(21,12,19,30)        178.627          estimate D2E/DX2                !
 ! D62   D(21,12,19,31)         55.0754         estimate D2E/DX2                !
 ! D63   D(21,12,19,32)        -69.0122         estimate D2E/DX2                !
 ! D64   D(7,12,21,33)         -61.1277         estimate D2E/DX2                !
 ! D65   D(7,12,21,34)         178.5333         estimate D2E/DX2                !
 ! D66   D(7,12,21,35)          53.6171         estimate D2E/DX2                !
 ! D67   D(19,12,21,33)        176.0524         estimate D2E/DX2                !
 ! D68   D(19,12,21,34)         55.7135         estimate D2E/DX2                !
 ! D69   D(19,12,21,35)        -69.2028         estimate D2E/DX2                !
 ! D70   D(11,16,18,1)         -20.7701         estimate D2E/DX2                !
 ! D71   D(11,16,18,29)        145.1016         estimate D2E/DX2                !
 ! D72   D(11,16,18,36)         60.8187         estimate D2E/DX2                !
 ! D73   D(11,16,18,37)       -119.185          estimate D2E/DX2                !
 ! D74   D(20,16,18,1)        -131.8904         estimate D2E/DX2                !
 ! D75   D(20,16,18,29)         33.9813         estimate D2E/DX2                !
 ! D76   D(20,16,18,36)        -50.3016         estimate D2E/DX2                !
 ! D77   D(20,16,18,37)        129.6947         estimate D2E/DX2                !
 ! D78   D(22,16,18,1)          88.1837         estimate D2E/DX2                !
 ! D79   D(22,16,18,29)       -105.9446         estimate D2E/DX2                !
 ! D80   D(22,16,18,36)        169.7725         estimate D2E/DX2                !
 ! D81   D(22,16,18,37)        -10.2312         estimate D2E/DX2                !
 ! D82   D(11,16,20,23)        -80.9761         estimate D2E/DX2                !
 ! D83   D(11,16,20,24)        163.245          estimate D2E/DX2                !
 ! D84   D(11,16,20,25)         39.7301         estimate D2E/DX2                !
 ! D85   D(18,16,20,23)         27.1174         estimate D2E/DX2                !
 ! D86   D(18,16,20,24)        -88.6616         estimate D2E/DX2                !
 ! D87   D(18,16,20,25)        147.8235         estimate D2E/DX2                !
 ! D88   D(22,16,20,23)        170.0124         estimate D2E/DX2                !
 ! D89   D(22,16,20,24)         54.2334         estimate D2E/DX2                !
 ! D90   D(22,16,20,25)        -69.2815         estimate D2E/DX2                !
 ! D91   D(11,16,22,26)         52.2311         estimate D2E/DX2                !
 ! D92   D(11,16,22,27)        -67.2698         estimate D2E/DX2                !
 ! D93   D(11,16,22,28)        169.2328         estimate D2E/DX2                !
 ! D94   D(18,16,22,26)        -54.4957         estimate D2E/DX2                !
 ! D95   D(18,16,22,27)       -173.9966         estimate D2E/DX2                !
 ! D96   D(18,16,22,28)         62.506          estimate D2E/DX2                !
 ! D97   D(20,16,22,26)        162.2626         estimate D2E/DX2                !
 ! D98   D(20,16,22,27)         42.7617         estimate D2E/DX2                !
 ! D99   D(20,16,22,28)        -80.7356         estimate D2E/DX2                !
 ! D100  D(1,18,37,38)         165.2193         estimate D2E/DX2                !
 ! D101  D(16,18,37,38)       -108.9726         estimate D2E/DX2                !
 ! D102  D(29,18,37,38)        -10.7212         estimate D2E/DX2                !
 ! D103  D(12,19,31,42)        178.7349         estimate D2E/DX2                !
 ! D104  D(12,19,31,43)         60.2183         estimate D2E/DX2                !
 ! D105  D(12,19,31,44)        -62.5731         estimate D2E/DX2                !
 ! D106  D(30,19,31,42)         57.2535         estimate D2E/DX2                !
 ! D107  D(30,19,31,43)        -61.263          estimate D2E/DX2                !
 ! D108  D(30,19,31,44)        175.9456         estimate D2E/DX2                !
 ! D109  D(32,19,31,42)        -59.5102         estimate D2E/DX2                !
 ! D110  D(32,19,31,43)       -178.0267         estimate D2E/DX2                !
 ! D111  D(32,19,31,44)         59.1819         estimate D2E/DX2                !
 ! D112  D(16,20,23,45)       -177.4935         estimate D2E/DX2                !
 ! D113  D(16,20,23,46)         63.9006         estimate D2E/DX2                !
 ! D114  D(16,20,23,47)        -57.1988         estimate D2E/DX2                !
 ! D115  D(24,20,23,45)        -61.0908         estimate D2E/DX2                !
 ! D116  D(24,20,23,46)       -179.6967         estimate D2E/DX2                !
 ! D117  D(24,20,23,47)         59.2039         estimate D2E/DX2                !
 ! D118  D(25,20,23,45)         58.7447         estimate D2E/DX2                !
 ! D119  D(25,20,23,46)        -59.8613         estimate D2E/DX2                !
 ! D120  D(25,20,23,47)        179.0394         estimate D2E/DX2                !
 ! D121  D(16,20,24,48)        169.6734         estimate D2E/DX2                !
 ! D122  D(16,20,24,49)         51.5949         estimate D2E/DX2                !
 ! D123  D(16,20,24,50)        -71.3739         estimate D2E/DX2                !
 ! D124  D(23,20,24,48)         53.84           estimate D2E/DX2                !
 ! D125  D(23,20,24,49)        -64.2385         estimate D2E/DX2                !
 ! D126  D(23,20,24,50)        172.7928         estimate D2E/DX2                !
 ! D127  D(25,20,24,48)        -64.8997         estimate D2E/DX2                !
 ! D128  D(25,20,24,49)        177.0219         estimate D2E/DX2                !
 ! D129  D(25,20,24,50)         54.0531         estimate D2E/DX2                !
 ! D130  D(16,20,25,51)       -177.9193         estimate D2E/DX2                !
 ! D131  D(16,20,25,52)         62.7222         estimate D2E/DX2                !
 ! D132  D(16,20,25,53)        -60.2718         estimate D2E/DX2                !
 ! D133  D(23,20,25,51)        -58.0136         estimate D2E/DX2                !
 ! D134  D(23,20,25,52)       -177.372          estimate D2E/DX2                !
 ! D135  D(23,20,25,53)         59.6339         estimate D2E/DX2                !
 ! D136  D(24,20,25,51)         59.8077         estimate D2E/DX2                !
 ! D137  D(24,20,25,52)        -59.5508         estimate D2E/DX2                !
 ! D138  D(24,20,25,53)        177.4552         estimate D2E/DX2                !
 ! D139  D(12,21,34,39)         48.9137         estimate D2E/DX2                !
 ! D140  D(12,21,34,40)        -72.8012         estimate D2E/DX2                !
 ! D141  D(12,21,34,41)        168.4901         estimate D2E/DX2                !
 ! D142  D(33,21,34,39)        -69.3722         estimate D2E/DX2                !
 ! D143  D(33,21,34,40)        168.9129         estimate D2E/DX2                !
 ! D144  D(33,21,34,41)         50.2043         estimate D2E/DX2                !
 ! D145  D(35,21,34,39)        172.7058         estimate D2E/DX2                !
 ! D146  D(35,21,34,40)         50.9909         estimate D2E/DX2                !
 ! D147  D(35,21,34,41)        -67.7178         estimate D2E/DX2                !
 ! D148  D(16,22,26,60)        171.6271         estimate D2E/DX2                !
 ! D149  D(16,22,26,61)         52.4323         estimate D2E/DX2                !
 ! D150  D(16,22,26,62)        -69.6723         estimate D2E/DX2                !
 ! D151  D(27,22,26,60)        -65.0201         estimate D2E/DX2                !
 ! D152  D(27,22,26,61)        175.7851         estimate D2E/DX2                !
 ! D153  D(27,22,26,62)         53.6805         estimate D2E/DX2                !
 ! D154  D(28,22,26,60)         53.6585         estimate D2E/DX2                !
 ! D155  D(28,22,26,61)        -65.5362         estimate D2E/DX2                !
 ! D156  D(28,22,26,62)        172.3591         estimate D2E/DX2                !
 ! D157  D(16,22,27,54)        -69.4985         estimate D2E/DX2                !
 ! D158  D(16,22,27,55)        171.9174         estimate D2E/DX2                !
 ! D159  D(16,22,27,56)         53.1731         estimate D2E/DX2                !
 ! D160  D(26,22,27,54)        172.205          estimate D2E/DX2                !
 ! D161  D(26,22,27,55)         53.6209         estimate D2E/DX2                !
 ! D162  D(26,22,27,56)        -65.1234         estimate D2E/DX2                !
 ! D163  D(28,22,27,54)         54.205          estimate D2E/DX2                !
 ! D164  D(28,22,27,55)        -64.3791         estimate D2E/DX2                !
 ! D165  D(28,22,27,56)        176.8766         estimate D2E/DX2                !
 ! D166  D(16,22,28,57)         67.0617         estimate D2E/DX2                !
 ! D167  D(16,22,28,58)        -54.7904         estimate D2E/DX2                !
 ! D168  D(16,22,28,59)       -173.6465         estimate D2E/DX2                !
 ! D169  D(26,22,28,57)       -177.2814         estimate D2E/DX2                !
 ! D170  D(26,22,28,58)         60.8665         estimate D2E/DX2                !
 ! D171  D(26,22,28,59)        -57.9896         estimate D2E/DX2                !
 ! D172  D(27,22,28,57)        -59.2827         estimate D2E/DX2                !
 ! D173  D(27,22,28,58)        178.8652         estimate D2E/DX2                !
 ! D174  D(27,22,28,59)         60.0091         estimate D2E/DX2                !
 --------------------------------------------------------------------------------
 Trust Radius=3.00D-01 FncErr=1.00D-07 GrdErr=1.00D-06 EigMax=2.50D+02 EigMin=1.00D-04
 Number of steps in this run=    374 maximum allowed number of steps=    378.
 GradGradGradGradGradGradGradGradGradGradGradGradGradGradGradGradGradGrad

 Stoichiometry    C20H37N2O2PRu
 Framework group  C1[X(C20H37N2O2PRu)]
 Deg. of freedom   183
 Full point group                 C1      NOp   1
 Largest Abelian subgroup         C1      NOp   1
 Largest concise Abelian subgroup C1      NOp   1
                         Standard orientation:                         
 ---------------------------------------------------------------------
 Center     Atomic      Atomic             Coordinates (Angstroms)
 Number     Number       Type             X           Y           Z
 ---------------------------------------------------------------------
      1          7           0       -0.762128    1.331031   -0.051025
      2          6           0       -2.001313    1.801978    0.197152
      3          6           0        0.138166    2.091194   -0.715494
      4          6           0       -2.370227    3.095081   -0.149658
      5          6           0       -1.429368    3.919148   -0.763121
      6          6           0       -0.169376    3.406449   -1.057082
      7          6           0       -2.899273    0.817267    0.881423
      8          1           0       -3.380705    3.447106    0.061534
      9          1           0       -1.684093    4.945424   -1.032533
     10          1           0        0.575820    4.014087   -1.571999
     11          6           0        1.414369    1.415793   -1.117136
     12          7           0       -2.674378   -0.555198    0.383349
     13          1           0       -3.955385    1.126905    0.789576
     14          1           0       -2.651041    0.810127    1.955931
     15          1           0        1.255852    1.002562   -2.128444
     16         15           0        1.741593   -0.098774   -0.060141
     17          1           0        2.250479    2.128001   -1.178156
     18         44           0       -0.390781   -0.622162    0.429085
     19          6           0       -3.147184   -0.693806   -1.016849
     20          6           0        2.746248   -1.241241   -1.201049
     21          6           0       -3.351037   -1.504834    1.297043
     22          6           0        2.850648    0.604561    1.324611
     23          6           0        1.754936   -1.959169   -2.122368
     24          6           0        3.424585   -2.307963   -0.338584
     25          6           0        3.777732   -0.506174   -2.059211
     26          6           0        2.107778    1.819272    1.893539
     27          6           0        4.231709    1.060630    0.856204
     28          6           0        3.007500   -0.431234    2.440577
     29          1           0       -0.208126   -2.262305    0.433553
     30          1           0       -2.608272    0.063449   -1.603313
     31          6           0       -4.647154   -0.570061   -1.241703
     32          1           0       -2.777804   -1.663085   -1.373104
     33          1           0       -2.880122   -1.368705    2.281821
     34          6           0       -3.216964   -2.949144    0.863332
     35          1           0       -4.414631   -1.212576    1.409249
     36          6           0       -0.399639   -0.766055   -1.461629
     37          8           0       -0.364896   -0.459601    2.511226
     38          1           0       -0.428623   -1.333991    2.912609
     39          1           0       -2.155533   -3.162724    0.636137
     40          1           0       -3.836420   -3.179662   -0.016974
     41          1           0       -3.556364   -3.601992    1.681681
     42          1           0       -4.850848   -0.669701   -2.318466
     43          1           0       -5.049426    0.405422   -0.927514
     44          1           0       -5.217758   -1.356906   -0.726793
     45          1           0        2.326373   -2.658453   -2.757325
     46          1           0        1.223444   -1.260448   -2.785525
     47          1           0        1.009595   -2.511791   -1.529968
     48          1           0        3.853535   -3.079390   -0.999453
     49          1           0        2.690317   -2.799953    0.316867
     50          1           0        4.246273   -1.903999    0.269380
     51          1           0        4.280605   -1.241415   -2.709820
     52          1           0        4.555224   -0.000738   -1.473817
     53          1           0        3.308185    0.236418   -2.722185
     54          1           0        4.871728    0.217640    0.562225
     55          1           0        4.738375    1.580151    1.687197
     56          1           0        4.180454    1.767703    0.013972
     57          1           0        3.574731   -1.313217    2.118823
     58          1           0        2.036083   -0.770576    2.819605
     59          1           0        3.553199    0.028543    3.281766
     60          1           0        2.635184    2.170924    2.795477
     61          1           0        1.076532    1.570756    2.180625
     62          1           0        2.077744    2.659179    1.183271
     63          8           0       -0.444025   -0.791278   -2.623699
 ---------------------------------------------------------------------
 Rotational constants (GHZ):           0.2643535           0.1578986           0.1405486
 General basis read from cards:  (5D, 7F)
 ======================================================================================================
                                       Pseudopotential Parameters
 ======================================================================================================
  Center     Atomic      Valence      Angular      Power
  Number     Number     Electrons     Momentum     of R      Exponent        Coefficient   SO-Coeffient
 ======================================================================================================
    1          7
                                   No pseudopotential on this center.
    2          6
                                   No pseudopotential on this center.
    3          6
                                   No pseudopotential on this center.
    4          6
                                   No pseudopotential on this center.
    5          6
                                   No pseudopotential on this center.
    6          6
                                   No pseudopotential on this center.
    7          6
                                   No pseudopotential on this center.
    8          1
                                   No pseudopotential on this center.
    9          1
                                   No pseudopotential on this center.
   10          1
                                   No pseudopotential on this center.
   11          6
                                   No pseudopotential on this center.
   12          7
                                   No pseudopotential on this center.
   13          1
                                   No pseudopotential on this center.
   14          1
                                   No pseudopotential on this center.
   15          1
                                   No pseudopotential on this center.
   16         15
                                   No pseudopotential on this center.
   17          1
                                   No pseudopotential on this center.
   18         44           16
                                      G and up 
                                                     2        1.0000000        0.00000000    0.00000000
                                      S - G
                                                     2       11.1052690      209.82297100    0.00000000
                                                     2        5.4147450       30.65472600    0.00000000
                                      P - G
                                                     2        9.7712710      146.33618200    0.00000000
                                                     2        5.0739910       24.12787700    0.00000000
                                      D - G
                                                     2        7.6714230       67.51589700    0.00000000
                                                     2        4.1365650        9.87010400    0.00000000
                                      F - G
                                                     2       11.3600000      -28.34061600    0.00000000
                                                     2        5.6800000       -4.94462900    0.00000000
   19          6
                                   No pseudopotential on this center.
   20          6
                                   No pseudopotential on this center.
   21          6
                                   No pseudopotential on this center.
   22          6
                                   No pseudopotential on this center.
   23          6
                                   No pseudopotential on this center.
   24          6
                                   No pseudopotential on this center.
   25          6
                                   No pseudopotential on this center.
   26          6
                                   No pseudopotential on this center.
   27          6
                                   No pseudopotential on this center.
   28          6
                                   No pseudopotential on this center.
   29          1
                                   No pseudopotential on this center.
   30          1
                                   No pseudopotential on this center.
   31          6
                                   No pseudopotential on this center.
   32          1
                                   No pseudopotential on this center.
   33          1
                                   No pseudopotential on this center.
   34          6
                                   No pseudopotential on this center.
   35          1
                                   No pseudopotential on this center.
   36          6
                                   No pseudopotential on this center.
   37          8
                                   No pseudopotential on this center.
   38          1
                                   No pseudopotential on this center.
   39          1
                                   No pseudopotential on this center.
   40          1
                                   No pseudopotential on this center.
   41          1
                                   No pseudopotential on this center.
   42          1
                                   No pseudopotential on this center.
   43          1
                                   No pseudopotential on this center.
   44          1
                                   No pseudopotential on this center.
   45          1
                                   No pseudopotential on this center.
   46          1
                                   No pseudopotential on this center.
   47          1
                                   No pseudopotential on this center.
   48          1
                                   No pseudopotential on this center.
   49          1
                                   No pseudopotential on this center.
   50          1
                                   No pseudopotential on this center.
   51          1
                                   No pseudopotential on this center.
   52          1
                                   No pseudopotential on this center.
   53          1
                                   No pseudopotential on this center.
   54          1
                                   No pseudopotential on this center.
   55          1
                                   No pseudopotential on this center.
   56          1
                                   No pseudopotential on this center.
   57          1
                                   No pseudopotential on this center.
   58          1
                                   No pseudopotential on this center.
   59          1
                                   No pseudopotential on this center.
   60          1
                                   No pseudopotential on this center.
   61          1
                                   No pseudopotential on this center.
   62          1
                                   No pseudopotential on this center.
   63          8
                                   No pseudopotential on this center.
 ======================================================================================================
 There are   603 symmetry adapted cartesian basis functions of A   symmetry.
 There are   575 symmetry adapted basis functions of A   symmetry.
   575 basis functions,  1187 primitive gaussians,   603 cartesian basis functions
   109 alpha electrons      109 beta electrons
       nuclear repulsion energy      3279.4385650943 Hartrees.
 NAtoms=   63 NActive=   63 NUniq=   63 SFac= 1.00D+00 NAtFMM=   60 NAOKFM=T Big=T
 Integral buffers will be    131072 words long.
 Raffenetti 2 integral format.
 Two-electron integral symmetry is turned on.
 Nuclear repulsion after empirical dispersion term =     3279.3436317279 Hartrees.
 One-electron integrals computed using PRISM.
   1 Symmetry operations used in ECPInt.
 ECPInt:  NShTT=   38503 NPrTT=  265225 LenC2=   35877 LenP2D=  136963.
 LDataN:  DoStor=T MaxTD1= 6 Len=  172
 Number of processors reduced to  16 by ecpmxn.
 NBasis=   575 RedAO= T EigKep=  4.29D-04  NBF=   575
 NBsUse=   575 1.00D-06 EigRej= -1.00D+00 NBFU=   575
 Defaulting to unpruned grid for atomic number  44.
 ExpMin= 1.60D-02 ExpMax= 9.48D+04 ExpMxC= 3.24D+03 IAcc=3 IRadAn=         5 AccDes= 0.00D+00
 Harris functional with IExCor= 1009 and IRadAn=       5 diagonalized for initial guess.
 HarFok:  IExCor= 1009 AccDes= 0.00D+00 IRadAn=         5 IDoV= 1 UseB2=F ITyADJ=14
 ICtDFT=  3500011 ScaDFX=  1.000000  1.000000  1.000000  1.000000
 Defaulting to unpruned grid for atomic number  44.
 FoFCou: FMM=F IPFlag=           0 FMFlag=      100000 FMFlg1=        2001
         NFxFlg=           0 DoJE=T BraDBF=F KetDBF=T FulRan=T
         wScrn=  0.000000 ICntrl=       500 IOpCl=  0 I1Cent=   200000004 NGrid=           0
         NMat0=    1 NMatS0=      1 NMatT0=    0 NMatD0=    1 NMtDS0=    0 NMtDT0=    0
 Petite list used in FoFCou.
 Requested convergence on RMS density matrix=1.00D-08 within 128 cycles.
 Requested convergence on MAX density matrix=1.00D-06.
 Requested convergence on             energy=1.00D-06.
 No special actions if energy rises.
 Defaulting to unpruned grid for atomic number  44.
 Defaulting to unpruned grid for atomic number  44.
 Defaulting to unpruned grid for atomic number  44.
 Defaulting to unpruned grid for atomic number  44.
 Defaulting to unpruned grid for atomic number  44.
 Defaulting to unpruned grid for atomic number  44.
 Defaulting to unpruned grid for atomic number  44.
 Defaulting to unpruned grid for atomic number  44.
 Defaulting to unpruned grid for atomic number  44.
 Defaulting to unpruned grid for atomic number  44.
 Defaulting to unpruned grid for atomic number  44.
 Defaulting to unpruned grid for atomic number  44.
 Defaulting to unpruned grid for atomic number  44.
 Defaulting to unpruned grid for atomic number  44.
 Defaulting to unpruned grid for atomic number  44.
 Defaulting to unpruned grid for atomic number  44.
 Defaulting to unpruned grid for atomic number  44.
 Defaulting to unpruned grid for atomic number  44.
 Defaulting to unpruned grid for atomic number  44.
 Defaulting to unpruned grid for atomic number  44.
 SCF Done:  E(RPBE1PBE) =  -1479.43964293     A.U. after   16 cycles
            NFock= 16  Conv=0.64D-08     -V/T= 2.0488

 **********************************************************************

            Population analysis using the SCF density.

 **********************************************************************

 Orbital symmetries:
       Occupied  (A) (A) (A) (A) (A) (A) (A) (A) (A) (A) (A) (A)
                 (A) (A) (A) (A) (A) (A) (A) (A) (A) (A) (A) (A)
                 (A) (A) (A) (A) (A) (A) (A) (A) (A) (A) (A) (A)
                 (A) (A) (A) (A) (A) (A) (A) (A) (A) (A) (A) (A)
                 (A) (A) (A) (A) (A) (A) (A) (A) (A) (A) (A) (A)
                 (A) (A) (A) (A) (A) (A) (A) (A) (A) (A) (A) (A)
                 (A) (A) (A) (A) (A) (A) (A) (A) (A) (A) (A) (A)
                 (A) (A) (A) (A) (A) (A) (A) (A) (A) (A) (A) (A)
                 (A) (A) (A) (A) (A) (A) (A) (A) (A) (A) (A) (A)
                 (A)
       Virtual   (A) (A) (A) (A) (A) (A) (A) (A) (A) (A) (A) (A)
                 (A) (A) (A) (A) (A) (A) (A) (A) (A) (A) (A) (A)
                 (A) (A) (A) (A) (A) (A) (A) (A) (A) (A) (A) (A)
                 (A) (A) (A) (A) (A) (A) (A) (A) (A) (A) (A) (A)
                 (A) (A) (A) (A) (A) (A) (A) (A) (A) (A) (A) (A)
                 (A) (A) (A) (A) (A) (A) (A) (A) (A) (A) (A) (A)
                 (A) (A) (A) (A) (A) (A) (A) (A) (A) (A) (A) (A)
                 (A) (A) (A) (A) (A) (A) (A) (A) (A) (A) (A) (A)
                 (A) (A) (A) (A) (A) (A) (A) (A) (A) (A) (A) (A)
                 (A) (A) (A) (A) (A) (A) (A) (A) (A) (A) (A) (A)
                 (A) (A) (A) (A) (A) (A) (A) (A) (A) (A) (A) (A)
                 (A) (A) (A) (A) (A) (A) (A) (A) (A) (A) (A) (A)
                 (A) (A) (A) (A) (A) (A) (A) (A) (A) (A) (A) (A)
                 (A) (A) (A) (A) (A) (A) (A) (A) (A) (A) (A) (A)
                 (A) (A) (A) (A) (A) (A) (A) (A) (A) (A) (A) (A)
                 (A) (A) (A) (A) (A) (A) (A) (A) (A) (A) (A) (A)
                 (A) (A) (A) (A) (A) (A) (A) (A) (A) (A) (A) (A)
                 (A) (A) (A) (A) (A) (A) (A) (A) (A) (A) (A) (A)
                 (A) (A) (A) (A) (A) (A) (A) (A) (A) (A) (A) (A)
                 (A) (A) (A) (A) (A) (A) (A) (A) (A) (A) (A) (A)
                 (A) (A) (A) (A) (A) (A) (A) (A) (A) (A) (A) (A)
                 (A) (A) (A) (A) (A) (A) (A) (A) (A) (A) (A) (A)
                 (A) (A) (A) (A) (A) (A) (A) (A) (A) (A) (A) (A)
                 (A) (A) (A) (A) (A) (A) (A) (A) (A) (A) (A) (A)
                 (A) (A) (A) (A) (A) (A) (A) (A) (A) (A) (A) (A)
                 (A) (A) (A) (A) (A) (A) (A) (A) (A) (A) (A) (A)
                 (A) (A) (A) (A) (A) (A) (A) (A) (A) (A) (A) (A)
                 (A) (A) (A) (A) (A) (A) (A) (A) (A) (A) (A) (A)
                 (A) (A) (A) (A) (A) (A) (A) (A) (A) (A) (A) (A)
                 (A) (A) (A) (A) (A) (A) (A) (A) (A) (A) (A) (A)
                 (A) (A) (A) (A) (A) (A) (A) (A) (A) (A) (A) (A)
                 (A) (A) (A) (A) (A) (A) (A) (A) (A) (A) (A) (A)
                 (A) (A) (A) (A) (A) (A) (A) (A) (A) (A) (A) (A)
                 (A) (A) (A) (A) (A) (A) (A) (A) (A) (A) (A) (A)
                 (A) (A) (A) (A) (A) (A) (A) (A) (A) (A) (A) (A)
                 (A) (A) (A) (A) (A) (A) (A) (A) (A) (A) (A) (A)
                 (A) (A) (A) (A) (A) (A) (A) (A) (A) (A) (A) (A)
                 (A) (A) (A) (A) (A) (A) (A) (A) (A) (A) (A) (A)
                 (A) (A) (A) (A) (A) (A) (A) (A) (A) (A)
 The electronic state is 1-A.
 Alpha  occ. eigenvalues --  -77.25116 -19.25789 -19.11432 -14.44044 -14.43589
 Alpha  occ. eigenvalues --  -10.31844 -10.29893 -10.29316 -10.27284 -10.26707
 Alpha  occ. eigenvalues --  -10.26338 -10.25947 -10.25914 -10.25716 -10.25384
 Alpha  occ. eigenvalues --  -10.25377 -10.24729 -10.23534 -10.22740 -10.22497
 Alpha  occ. eigenvalues --  -10.22037 -10.21739 -10.21023 -10.20305 -10.20280
 Alpha  occ. eigenvalues --   -6.63000  -4.76663  -4.76559  -4.76304  -3.01829
 Alpha  occ. eigenvalues --   -1.85772  -1.84734  -1.84062  -1.13325  -1.01035
 Alpha  occ. eigenvalues --   -0.97144  -0.88356  -0.85403  -0.84695  -0.83806
 Alpha  occ. eigenvalues --   -0.82450  -0.78717  -0.77827  -0.75025  -0.71287
 Alpha  occ. eigenvalues --   -0.70955  -0.70074  -0.69637  -0.68783  -0.67017
 Alpha  occ. eigenvalues --   -0.66526  -0.63800  -0.62448  -0.58618  -0.57090
 Alpha  occ. eigenvalues --   -0.55816  -0.54342  -0.53889  -0.52444  -0.51712
 Alpha  occ. eigenvalues --   -0.50841  -0.49828  -0.48739  -0.47402  -0.46521
 Alpha  occ. eigenvalues --   -0.46074  -0.45886  -0.45541  -0.45195  -0.44603
 Alpha  occ. eigenvalues --   -0.44173  -0.44072  -0.43475  -0.43176  -0.42656
 Alpha  occ. eigenvalues --   -0.42407  -0.41845  -0.41520  -0.40431  -0.39995
 Alpha  occ. eigenvalues --   -0.39563  -0.38819  -0.38487  -0.37975  -0.37715
 Alpha  occ. eigenvalues --   -0.37394  -0.36949  -0.36712  -0.36235  -0.35949
 Alpha  occ. eigenvalues --   -0.35693  -0.35304  -0.34765  -0.34623  -0.34203
 Alpha  occ. eigenvalues --   -0.33182  -0.32685  -0.32319  -0.32004  -0.31169
 Alpha  occ. eigenvalues --   -0.29482  -0.27840  -0.27159  -0.25744  -0.25222
 Alpha  occ. eigenvalues --   -0.24780  -0.20927  -0.18602  -0.17494
 Alpha virt. eigenvalues --   -0.04166  -0.02642   0.00852   0.01002   0.02039
 Alpha virt. eigenvalues --    0.02643   0.03302   0.03706   0.04510   0.06999
 Alpha virt. eigenvalues --    0.07667   0.08037   0.08412   0.08650   0.09390
 Alpha virt. eigenvalues --    0.09776   0.10128   0.10544   0.10773   0.10911
 Alpha virt. eigenvalues --    0.11785   0.12011   0.12743   0.12961   0.13210
 Alpha virt. eigenvalues --    0.13563   0.13633   0.14113   0.14668   0.14885
 Alpha virt. eigenvalues --    0.15088   0.15421   0.15926   0.16183   0.17004
 Alpha virt. eigenvalues --    0.17190   0.17570   0.18101   0.18242   0.18589
 Alpha virt. eigenvalues --    0.18839   0.19304   0.19924   0.20133   0.20344
 Alpha virt. eigenvalues --    0.20776   0.21165   0.21235   0.21465   0.21911
 Alpha virt. eigenvalues --    0.22474   0.22950   0.23051   0.23566   0.23770
 Alpha virt. eigenvalues --    0.24289   0.24946   0.25495   0.25952   0.26582
 Alpha virt. eigenvalues --    0.27141   0.27510   0.27830   0.28486   0.29284
 Alpha virt. eigenvalues --    0.29464   0.30668   0.31096   0.31622   0.32463
 Alpha virt. eigenvalues --    0.33156   0.33968   0.34783   0.34973   0.35658
 Alpha virt. eigenvalues --    0.37503   0.38264   0.40201   0.41224   0.41838
 Alpha virt. eigenvalues --    0.42225   0.43107   0.43893   0.44804   0.44888
 Alpha virt. eigenvalues --    0.45461   0.46195   0.46565   0.47323   0.47978
 Alpha virt. eigenvalues --    0.48315   0.49523   0.50016   0.50907   0.51424
 Alpha virt. eigenvalues --    0.51845   0.52305   0.52444   0.52733   0.53556
 Alpha virt. eigenvalues --    0.54373   0.54957   0.55561   0.55925   0.57075
 Alpha virt. eigenvalues --    0.57527   0.58165   0.58899   0.59200   0.59698
 Alpha virt. eigenvalues --    0.60293   0.61104   0.61227   0.61330   0.61945
 Alpha virt. eigenvalues --    0.61984   0.62230   0.62733   0.62787   0.63546
 Alpha virt. eigenvalues --    0.64192   0.64338   0.64512   0.64912   0.65232
 Alpha virt. eigenvalues --    0.65387   0.65597   0.65708   0.66110   0.66651
 Alpha virt. eigenvalues --    0.67034   0.67230   0.67743   0.67906   0.68568
 Alpha virt. eigenvalues --    0.68678   0.68869   0.69157   0.69386   0.70307
 Alpha virt. eigenvalues --    0.70811   0.71065   0.71318   0.72053   0.72304
 Alpha virt. eigenvalues --    0.72472   0.73126   0.73515   0.73836   0.74196
 Alpha virt. eigenvalues --    0.74927   0.75190   0.75300   0.75666   0.76239
 Alpha virt. eigenvalues --    0.76876   0.77126   0.77594   0.78492   0.78601
 Alpha virt. eigenvalues --    0.79024   0.79458   0.80063   0.80389   0.81510
 Alpha virt. eigenvalues --    0.81596   0.82551   0.82883   0.83613   0.84033
 Alpha virt. eigenvalues --    0.84642   0.85511   0.85860   0.86749   0.87026
 Alpha virt. eigenvalues --    0.87671   0.88716   0.89358   0.89823   0.90292
 Alpha virt. eigenvalues --    0.90856   0.91894   0.92351   0.92984   0.94126
 Alpha virt. eigenvalues --    0.94316   0.94815   0.95893   0.96222   0.96935
 Alpha virt. eigenvalues --    0.97243   0.97637   0.98721   0.99287   1.00509
 Alpha virt. eigenvalues --    1.01321   1.02201   1.02695   1.04166   1.04746
 Alpha virt. eigenvalues --    1.05714   1.06785   1.07457   1.07713   1.09477
 Alpha virt. eigenvalues --    1.09817   1.10749   1.11726   1.13399   1.13508
 Alpha virt. eigenvalues --    1.14688   1.15535   1.15842   1.16733   1.17914
 Alpha virt. eigenvalues --    1.19912   1.20158   1.21311   1.22863   1.23113
 Alpha virt. eigenvalues --    1.25095   1.25870   1.26549   1.26985   1.27517
 Alpha virt. eigenvalues --    1.29117   1.29618   1.30457   1.31032   1.32220
 Alpha virt. eigenvalues --    1.32767   1.33880   1.34101   1.34945   1.36178
 Alpha virt. eigenvalues --    1.36614   1.37490   1.38501   1.38825   1.39782
 Alpha virt. eigenvalues --    1.40051   1.41236   1.41782   1.42266   1.42906
 Alpha virt. eigenvalues --    1.43338   1.43638   1.43667   1.44922   1.45107
 Alpha virt. eigenvalues --    1.45606   1.46062   1.46989   1.47287   1.47464
 Alpha virt. eigenvalues --    1.47924   1.48790   1.49244   1.49842   1.50851
 Alpha virt. eigenvalues --    1.51945   1.52427   1.53057   1.53665   1.54336
 Alpha virt. eigenvalues --    1.54629   1.55323   1.55448   1.55950   1.57396
 Alpha virt. eigenvalues --    1.58181   1.58860   1.59358   1.60090   1.60606
 Alpha virt. eigenvalues --    1.61421   1.61858   1.62129   1.62784   1.63335
 Alpha virt. eigenvalues --    1.63717   1.64438   1.64676   1.64855   1.65430
 Alpha virt. eigenvalues --    1.65832   1.66712   1.67052   1.67329   1.67806
 Alpha virt. eigenvalues --    1.69058   1.69303   1.69759   1.70153   1.70356
 Alpha virt. eigenvalues --    1.70587   1.71303   1.71848   1.72155   1.72449
 Alpha virt. eigenvalues --    1.72734   1.73131   1.73599   1.74283   1.74721
 Alpha virt. eigenvalues --    1.75333   1.75702   1.75951   1.76144   1.76611
 Alpha virt. eigenvalues --    1.77267   1.77824   1.78017   1.78379   1.78788
 Alpha virt. eigenvalues --    1.79047   1.79664   1.80362   1.80941   1.81358
 Alpha virt. eigenvalues --    1.82142   1.82537   1.83220   1.83506   1.84015
 Alpha virt. eigenvalues --    1.84402   1.85441   1.85948   1.86658   1.86749
 Alpha virt. eigenvalues --    1.88038   1.88452   1.88593   1.89122   1.90256
 Alpha virt. eigenvalues --    1.90467   1.90850   1.91263   1.91520   1.93633
 Alpha virt. eigenvalues --    1.93875   1.94993   1.95365   1.96014   1.97076
 Alpha virt. eigenvalues --    1.97757   1.98617   1.98842   1.99922   2.00299
 Alpha virt. eigenvalues --    2.00902   2.01705   2.01812   2.02083   2.03040
 Alpha virt. eigenvalues --    2.04256   2.04962   2.05570   2.05855   2.05937
 Alpha virt. eigenvalues --    2.06499   2.07837   2.08018   2.08556   2.09203
 Alpha virt. eigenvalues --    2.09962   2.10354   2.10592   2.12762   2.13528
 Alpha virt. eigenvalues --    2.13853   2.14608   2.15380   2.18100   2.18619
 Alpha virt. eigenvalues --    2.19027   2.20670   2.21573   2.22624   2.23343
 Alpha virt. eigenvalues --    2.23859   2.24355   2.25336   2.26100   2.26478
 Alpha virt. eigenvalues --    2.26866   2.27127   2.27561   2.28374   2.29377
 Alpha virt. eigenvalues --    2.29839   2.30524   2.32307   2.34672   2.36694
 Alpha virt. eigenvalues --    2.37992   2.39452   2.40586   2.41185   2.41665
 Alpha virt. eigenvalues --    2.41905   2.42605   2.42816   2.43941   2.44409
 Alpha virt. eigenvalues --    2.44799   2.45517   2.46036   2.46972   2.47610
 Alpha virt. eigenvalues --    2.48225   2.48643   2.49304   2.50106   2.50517
 Alpha virt. eigenvalues --    2.50577   2.51169   2.52255   2.53322   2.53547
 Alpha virt. eigenvalues --    2.53927   2.54798   2.55701   2.56331   2.56646
 Alpha virt. eigenvalues --    2.57023   2.57426   2.58636   2.59022   2.59519
 Alpha virt. eigenvalues --    2.60912   2.61824   2.62441   2.63859   2.66073
 Alpha virt. eigenvalues --    2.66215   2.68716   2.69363   2.70791   2.70984
 Alpha virt. eigenvalues --    2.71822   2.73466   2.73896   2.74588   2.77323
 Alpha virt. eigenvalues --    2.78153   2.79248   2.81040   2.82848   2.84536
 Alpha virt. eigenvalues --    2.86853   2.89193   2.92136   2.98287   3.01341
 Alpha virt. eigenvalues --    3.06121   3.10062   3.14444   3.18221   3.49122
 Alpha virt. eigenvalues --    3.60058   3.85468  34.89088  35.00285  35.11818
 Alpha virt. eigenvalues --   45.98799
          Condensed to atoms (all electrons):
 Mulliken charges:
               1
     1  N   -0.333608
     2  C    0.032238
     3  C    0.090136
     4  C   -0.042096
     5  C    0.077064
     6  C   -0.044184
     7  C    0.125753
     8  H    0.002617
     9  H    0.017071
    10  H    0.004309
    11  C   -0.121552
    12  N   -0.392991
    13  H    0.032128
    14  H    0.137661
    15  H    0.108923
    16  P    0.186042
    17  H    0.062150
    18  Ru  -0.023949
    19  C   -0.039672
    20  C   -0.469274
    21  C    0.006618
    22  C   -0.457200
    23  C   -0.009592
    24  C   -0.007265
    25  C    0.015695
    26  C   -0.021703
    27  C    0.016840
    28  C   -0.003539
    29  H   -0.034229
    30  H    0.102861
    31  C   -0.054813
    32  H    0.086922
    33  H    0.093315
    34  C   -0.100086
    35  H    0.026581
    36  C   -0.062918
    37  O   -0.407056
    38  H    0.166695
    39  H    0.129067
    40  H    0.041674
    41  H    0.050040
    42  H    0.058073
    43  H    0.048750
    44  H    0.055887
    45  H    0.022430
    46  H    0.068251
    47  H    0.110717
    48  H    0.037563
    49  H    0.094221
    50  H    0.045613
    51  H    0.040087
    52  H    0.034011
    53  H    0.039376
    54  H    0.048024
    55  H    0.037979
    56  H    0.033573
    57  H    0.026896
    58  H    0.114010
    59  H    0.028113
    60  H    0.033767
    61  H    0.141864
    62  H    0.028534
    63  O   -0.134413
 Sum of Mulliken charges =  -0.00000
 Mulliken charges with hydrogens summed into heavy atoms:
               1
     1  N   -0.333608
     2  C    0.032238
     3  C    0.090136
     4  C   -0.039479
     5  C    0.094134
     6  C   -0.039875
     7  C    0.295542
    11  C    0.049522
    12  N   -0.392991
    16  P    0.186042
    18  Ru  -0.058178
    19  C    0.150111
    20  C   -0.469274
    21  C    0.126514
    22  C   -0.457200
    23  C    0.191806
    24  C    0.170132
    25  C    0.129168
    26  C    0.182463
    27  C    0.136417
    28  C    0.165481
    31  C    0.107896
    34  C    0.120694
    36  C   -0.062918
    37  O   -0.240361
    63  O   -0.134413
 Electronic spatial extent (au):  <R**2>=           9291.6852
 Charge=             -0.0000 electrons
 Dipole moment (field-independent basis, Debye):
    X=             -1.5177    Y=              3.5869    Z=             -2.9143  Tot=              4.8644
 Quadrupole moment (field-independent basis, Debye-Ang):
   XX=           -162.1535   YY=           -174.6684   ZZ=           -194.4842
   XY=             -1.4523   XZ=             -2.6843   YZ=             -4.6164
 Traceless Quadrupole moment (field-independent basis, Debye-Ang):
   XX=             14.9485   YY=              2.4336   ZZ=            -17.3822
   XY=             -1.4523   XZ=             -2.6843   YZ=             -4.6164
 Octapole moment (field-independent basis, Debye-Ang**2):
  XXX=            -71.1368  YYY=             19.2491  ZZZ=             16.8611  XYY=            -27.8069
  XXY=             -7.7222  XXZ=             12.0331  XZZ=             -5.2537  YZZ=            -15.2175
  YYZ=             -5.4450  XYZ=              3.2250
 Hexadecapole moment (field-independent basis, Debye-Ang**3):
 XXXX=          -6960.6763 YYYY=          -3218.4626 ZZZZ=          -2337.9930 XXXY=            -16.1257
 XXXZ=            -17.8928 YYYX=            -49.8474 YYYZ=           -100.1957 ZZZX=            -11.7935
 ZZZY=            -41.4559 XXYY=          -1666.2307 XXZZ=          -1529.1961 YYZZ=           -919.0807
 XXYZ=             13.0925 YYXZ=            -23.4136 ZZXY=             34.7848
 N-N= 3.279343631728D+03 E-N=-9.994163393971D+03  KE= 1.410668706597D+03
   1 Symmetry operations used in ECPInt.
 ECPInt:  NShTT=   38503 NPrTT=  265225 LenC2=   35877 LenP2D=  136963.
 LDataN:  DoStor=T MaxTD1= 7 Len=  274
 Number of processors reduced to  17 by ecpmxn.
 Calling FoFJK, ICntrl=      2127 FMM=T ISym2X=0 I1Cent= 0 IOpClX= 0 NMat=1 NMatS=1 NMatT=0.
 Defaulting to unpruned grid for atomic number  44.
 Defaulting to unpruned grid for atomic number  44.
 Defaulting to unpruned grid for atomic number  44.
 Defaulting to unpruned grid for atomic number  44.
 Defaulting to unpruned grid for atomic number  44.
 Defaulting to unpruned grid for atomic number  44.
 Defaulting to unpruned grid for atomic number  44.
 Defaulting to unpruned grid for atomic number  44.
 Defaulting to unpruned grid for atomic number  44.
 Defaulting to unpruned grid for atomic number  44.
 Defaulting to unpruned grid for atomic number  44.
 Defaulting to unpruned grid for atomic number  44.
 Defaulting to unpruned grid for atomic number  44.
 Defaulting to unpruned grid for atomic number  44.
 Defaulting to unpruned grid for atomic number  44.
 Defaulting to unpruned grid for atomic number  44.
 Defaulting to unpruned grid for atomic number  44.
 Defaulting to unpruned grid for atomic number  44.
 Defaulting to unpruned grid for atomic number  44.
 Defaulting to unpruned grid for atomic number  44.
 ***** Axes restored to original set *****
 -------------------------------------------------------------------
 Center     Atomic                   Forces (Hartrees/Bohr)
 Number     Number              X              Y              Z
 -------------------------------------------------------------------
      1        7          -0.003523488    0.029241505    0.018446961
      2        6           0.001958173    0.001494409   -0.000731255
      3        6          -0.002422368    0.002788981    0.001359128
      4        6          -0.000870543   -0.000105338   -0.001680430
      5        6          -0.000103919    0.000120613    0.000451326
      6        6           0.000395424   -0.000337556   -0.001862553
      7        6          -0.001550210   -0.000274009    0.004901335
      8        1          -0.000080269    0.000205680    0.000077321
      9        1           0.000107067    0.000003562    0.000126985
     10        1           0.000022117    0.000196789    0.000107774
     11        6           0.001384503    0.000552181   -0.000216335
     12        7          -0.005756435   -0.000495354    0.008521090
     13        1          -0.000073970    0.000042918   -0.000520553
     14        1           0.002167137   -0.001435112   -0.000833615
     15        1           0.001770669    0.002671195   -0.000289242
     16       15           0.012933107    0.000944491    0.018640996
     17        1          -0.000032299   -0.000849090   -0.000026545
     18       44           0.016249022   -0.026825415   -0.081907894
     19        6          -0.001715145    0.000614595    0.003977543
     20        6           0.000317869   -0.002225565    0.001253713
     21        6           0.001382408    0.002118160    0.001359026
     22        6           0.001069377   -0.000100029    0.001093362
     23        6           0.021140627   -0.001591334   -0.006865059
     24        6           0.000926230    0.000469927   -0.000556010
     25        6          -0.000712974    0.000042494   -0.000774845
     26        6          -0.003465034    0.000137008   -0.001145019
     27        6          -0.000248757   -0.000244575   -0.000697935
     28        6          -0.000619452   -0.002272888    0.000710107
     29        1           0.001241434    0.002077063    0.013849803
     30        1          -0.003271549    0.000614674    0.000091475
     31        6           0.000534829   -0.000001935   -0.000579859
     32        1          -0.001673759   -0.000456981   -0.000744318
     33        1           0.002041023    0.001501296   -0.000626010
     34        6           0.000638281    0.000894246   -0.000122552
     35        1           0.000244430   -0.001381780   -0.000693279
     36        6          -0.029521440   -0.011097011    0.036944968
     37        8          -0.008100090    0.007807045   -0.006831280
     38        1           0.001939371   -0.000617136   -0.003367466
     39        1          -0.003658842   -0.000421106    0.001211737
     40        1           0.001023096   -0.000701414   -0.000454362
     41        1           0.001047616   -0.000255474   -0.000529497
     42        1           0.000055398   -0.000013125    0.000013723
     43        1           0.000486342   -0.000350775    0.000045567
     44        1           0.000098483    0.000078578    0.000061326
     45        1           0.000372839   -0.002489171    0.002065928
     46        1           0.021802609   -0.013309257   -0.000279944
     47        1           0.003731934   -0.001425885   -0.003261765
     48        1          -0.000052194    0.000189090   -0.000211832
     49        1           0.000603508    0.000016160    0.001220452
     50        1          -0.000649051   -0.000401836    0.000385303
     51        1          -0.000015121    0.000070676    0.000024743
     52        1          -0.000512562   -0.000258807    0.000230825
     53        1           0.000015911   -0.000083568    0.000004881
     54        1           0.000472953   -0.000114222   -0.000002235
     55        1          -0.000222035   -0.000085413    0.000112156
     56        1           0.000207649    0.000359116   -0.000142421
     57        1           0.001083740    0.000174572   -0.000079304
     58        1          -0.004316926    0.001976579   -0.001375211
     59        1           0.000903234    0.000572936   -0.000326341
     60        1           0.000407021   -0.000200096   -0.000237372
     61        1          -0.000682950   -0.002801684    0.000794643
     62        1           0.000840005    0.000667298   -0.000368883
     63        8          -0.027764051    0.014579105    0.000257025
 -------------------------------------------------------------------
 Cartesian Forces:  Max     0.081907894 RMS     0.008806946

 GradGradGradGradGradGradGradGradGradGradGradGradGradGradGradGradGradGrad
 Berny optimization.
 FormGI is forming the generalized inverse of G from B-inverse, IUseBI=4.
 Internal  Forces:  Max     0.080122108 RMS     0.012915130
 Search for a local minimum.
 Step number   1 out of a maximum of  374
 All quantities printed in internal units (Hartrees-Bohrs-Radians)
 Mixed Optimization -- RFO/linear search
 Second derivative matrix not updated -- first step.
 ITU=  0
     Eigenvalues ---    0.00230   0.00230   0.00230   0.00325   0.00343
     Eigenvalues ---    0.00361   0.00365   0.00370   0.00394   0.00396
     Eigenvalues ---    0.00478   0.00576   0.00581   0.00615   0.00670
     Eigenvalues ---    0.00791   0.01094   0.01316   0.01662   0.01792
     Eigenvalues ---    0.02187   0.02191   0.02195   0.02212   0.02283
     Eigenvalues ---    0.02632   0.02654   0.02752   0.03721   0.03977
     Eigenvalues ---    0.04093   0.04139   0.04185   0.04750   0.04824
     Eigenvalues ---    0.04824   0.04837   0.04841   0.04997   0.05017
     Eigenvalues ---    0.05156   0.05228   0.05249   0.05254   0.05287
     Eigenvalues ---    0.05300   0.05328   0.05366   0.05433   0.05465
     Eigenvalues ---    0.05490   0.05655   0.05688   0.05698   0.05717
     Eigenvalues ---    0.05736   0.05779   0.05802   0.05835   0.05840
     Eigenvalues ---    0.05980   0.06206   0.06286   0.06624   0.07779
     Eigenvalues ---    0.08507   0.09207   0.09594   0.09719   0.09827
     Eigenvalues ---    0.10117   0.11803   0.12871   0.12941   0.13211
     Eigenvalues ---    0.13254   0.14037   0.14209   0.14400   0.14532
     Eigenvalues ---    0.14588   0.14762   0.15554   0.15993   0.15997
     Eigenvalues ---    0.16000   0.16000   0.16000   0.16000   0.16000
     Eigenvalues ---    0.16000   0.16000   0.16000   0.16000   0.16000
     Eigenvalues ---    0.16000   0.16000   0.16000   0.16000   0.16000
     Eigenvalues ---    0.16000   0.16000   0.16000   0.16000   0.16000
     Eigenvalues ---    0.16000   0.16000   0.16000   0.16000   0.16000
     Eigenvalues ---    0.16000   0.16403   0.16957   0.17087   0.18282
     Eigenvalues ---    0.19145   0.19505   0.21041   0.21952   0.21971
     Eigenvalues ---    0.21981   0.22104   0.23285   0.23713   0.24180
     Eigenvalues ---    0.24747   0.24998   0.29119   0.29242   0.29365
     Eigenvalues ---    0.29394   0.29429   0.29610   0.30197   0.30955
     Eigenvalues ---    0.31332   0.32581   0.32737   0.32996   0.33201
     Eigenvalues ---    0.33249   0.33253   0.33325   0.33344   0.33345
     Eigenvalues ---    0.33371   0.33390   0.33417   0.33577   0.33585
     Eigenvalues ---    0.33589   0.33592   0.33609   0.33627   0.33640
     Eigenvalues ---    0.33641   0.33641   0.33658   0.33678   0.33680
     Eigenvalues ---    0.33690   0.33784   0.33793   0.33801   0.33850
     Eigenvalues ---    0.34028   0.34044   0.34055   0.34064   0.34076
     Eigenvalues ---    0.34411   0.34675   0.34729   0.34734   0.34884
     Eigenvalues ---    0.42633   0.43592   0.46852   0.47274   0.49626
     Eigenvalues ---    0.54028   0.54575   1.25728
 RFO step:  Lambda=-2.04609531D-01 EMin= 2.30000000D-03
 Linear search not attempted -- first point.
 Maximum step size (   0.300) exceeded in Quadratic search.
    -- Step size scaled by   0.510
 Iteration  1 RMS(Cart)=  0.18199330 RMS(Int)=  0.00575980
[...]
 ,0.00008542,0.00024799,0.00018347,0.00002565,0.00000140,0.00001191,-0.
 00000728,-0.00000892,0.00001068,-0.00000656,0.00000922,-0.00002151,-0.
 00037703,-0.00011677,-0.00002335,-0.00083348,-0.00003801,0.00012952,0.
 00004506,-0.00007821,0.00004055,-0.00028843,0.00029711,-0.00003421,0.0
 0005419,0.00012397,-0.00004959,0.00201979,0.00153069,0.00002115,0.0000
 9267,-0.00013719,0.00005613,-0.00051647,-0.00125179,-0.00474612,-0.000
 05785,0.00000078,-0.00017244,-0.00017614,-0.00019335,-0.00005411,0.000
 01510,-0.00002075,-0.00008798,0.02157663,0.00901982,-0.00178155,0.0000
 3609,-0.00001586,-0.00001516,0.00003080,0.00000471,0.00006078,-0.00002
 416,0.00013021,0.00007572,-0.09587090,-0.08419954,0.01615610,0.0032163
 9,-0.00396892,-0.00238723,0.00052283,0.00147349,-0.00031358,0.00014677
 ,-0.00053281,0.00009170,-0.00000831,0.00000191,0.00004905,0.00001536,0
 .00000345,0.00005765,-0.00003502,-0.00001250,-0.00000754,-0.00029706,-
 0.00008342,0.00006984,-0.00005401,-0.00008198,0.00004122,0.00007061,-0
 .00001248,0.00004101,0.00012516,-0.00036979,-0.00048073,-0.00000255,0.
 00100778,0.00295457,0.00063962,0.00022274,0.00065270,-0.00003264,-0.00
 005494,-0.00007398,0.00001462,0.00002624,0.00003061,-0.00000562,-0.000
 00492,-0.00001332,0.00001956,-0.00000714,0.00001656,0.00001474,-0.0000
 1109,-0.00001458,-0.00001224,-0.00000380,-0.00000789,-0.00004920,-0.00
 000814,-0.00000879,0.00003315,0.00003392,-0.00003588,0.00001783,-0.000
 06489,-0.00001168,-0.00001421,-0.00000892,-0.00001107,0.00000105,-0.00
 003466,-0.00000787,-0.00003458,0.00007907,-0.00002105,-0.00003487,-0.0
 0003621,0.00000683,-0.00004843,-0.00004978,0.00009869,-0.00002094,-0.0
 0001847,-0.00002950,0.00199430,0.00056582,-0.00056969,-0.00029278,-0.0
 0027301,0.00003254,-0.00004472,0.00008565,-0.00021605,-0.00029806,-0.0
 0003934,-0.00001659,0.00038742,-0.00087656,0.00025609,-0.00011393,-0.0
 0001131,-0.00006929,-0.00300254,-0.00232659,0.00115918,0.09304715,0.08
 625636,-0.00034680,0.00093965,-0.00014904,-0.00091366,0.00032216,0.000
 14490,0.00065486,0.00074243,-0.00054969,-0.00001135,-0.00008392,-0.000
 06454,0.00000799,0.00000114,-0.00003347,-0.00003457,0.00001819,-0.0000
 0824,-0.00016181,0.00007268,0.00004372,0.00002639,-0.00002770,0.000006
 94,0.00001195,-0.00001050,0.00001941,-0.00000678,-0.00006194,0.0000325
 1,0.00010187,0.00014563,-0.00019397,-0.00131626,0.00017830,0.00003852,
 0.00007554,-0.00000425,-0.00000256,0.00001322,0.00002518,0.00011824,-0
 .00013161,-0.00002043,-0.00004160,0.00157975,0.00027586,-0.00079582,-0
 .00008709,-0.00014898,0.00012765,0.00076954,-0.00262482,-0.00128231,-0
 .00009062,0.00000400,-0.00002631,0.00005434,-0.00009287,0.00006007,-0.
 00006028,-0.00006577,0.00008737,0.01385195,0.00578777,-0.00356595,-0.0
 0005805,-0.00000434,0.00000931,0.00002054,-0.00000815,0.00008723,-0.00
 000397,0.00010428,0.00007754,0.03460019,0.01482344,-0.05243512,0.00124
 631,-0.00262960,-0.00125598,-0.00080856,0.00042426,0.00011484,0.000118
 46,-0.00029413,-0.00000308,-0.00000498,0.00001735,-0.00001765,0.000001
 29,-0.00000024,-0.00000547,-0.00000507,0.00000282,-0.00000114,-0.00000
 925,0.00001341,0.00002275,-0.00001084,0.00001777,-0.00001185,0.0000226
 9,0.00000708,-0.00001240,0.00020554,0.00017017,-0.00069836,-0.00097329
 ,0.00006340,-0.00101278,0.00058281,0.00033079,0.00001098,0.00000857,-0
 .00001047,0.00004389,0.00000254,-0.00000603,-0.00000060,0.00000991,0.0
 0001013,-0.00000594,0.00000418,0.00000026,0.00000431,-0.00000435,-0.00
 000155,-0.00000010,0.00000908,0.00000547,-0.00000249,-0.00000613,0.000
 02170,0.00003071,0.00000892,0.00000784,-0.00001307,0.00000987,-0.00001
 883,-0.00001545,-0.00002645,0.00001643,-0.00001703,-0.00000249,-0.0000
 0166,-0.00000845,-0.00003746,0.00003141,-0.00001823,-0.00004157,-0.000
 02541,0.00001222,-0.00002882,-0.00001558,0.00004413,-0.00000680,-0.000
 00124,-0.00001294,0.00115860,0.00025782,0.00048078,0.00026219,0.000124
 77,0.00034741,-0.00033283,-0.00017589,0.00010703,-0.00000374,-0.000012
 84,-0.00021832,-0.00011442,0.00011507,0.00038545,-0.00016515,-0.000138
 93,-0.00003891,-0.02636868,-0.01019338,0.00465625,-0.03842100,-0.01293
 898,0.05836770,-0.00017980,-0.00029868,0.00006217,-0.00027465,-0.00011
 597,0.00013721,-0.00000047,-0.00030984,-0.00109174,-0.00000726,0.00004
 669,0.00000792,-0.00016746,0.00014775,0.00007020,-0.00000121,0.0004789
 6,-0.00025784,-0.00008619,-0.00004506,-0.00008049,0.00001209,-0.000002
 58,0.00000434,0.00000977,-0.00000833,-0.00001416,0.00001649,-0.0000375
 0,0.00001399,0.00046154,0.00004899,-0.00020358,-0.00011029,0.00008624,
 -0.00001332,0.00000196,0.00003100,-0.00000600,0.00012826,-0.00005897,0
 .00005091,-0.00018818,-0.00005154,-0.00001095,0.00011343,-0.00022856,-
 0.00025403,-0.00010642,-0.00013362,0.00029405,0.00021048,-0.00019452,0
 .00059605,-0.00002960,0.00000462,0.00003575,-0.00007983,0.00003135,-0.
 00007207,-0.00003218,-0.00000878,0.00005401,-0.00204886,0.01386177,-0.
 01112546,0.00002973,-0.00004110,0.00000053,-0.00000878,-0.00000713,0.0
 0004804,0.00004429,0.00002343,0.00003971,-0.04547081,0.00675547,-0.002
 51006,0.00123603,0.00059846,-0.00111047,-0.00246212,0.00278469,0.00209
 896,-0.00000530,0.00005417,-0.00001709,0.00000337,0.00000022,-0.000027
 39,-0.00000183,-0.00000205,-0.00001891,0.00001201,0.00000846,0.0000044
 6,0.00004714,0.00000872,-0.00001445,0.00000292,0.00002108,-0.00001319,
 -0.00001037,0.00000259,-0.00001492,0.00000552,0.00002456,-0.00010221,-
 0.00134257,-0.00128939,-0.00092610,-0.00005906,-0.00005091,0.00004618,
 -0.00000009,-0.00000362,0.00000286,-0.00000145,-0.00000683,-0.00000581
 ,0.00000387,0.00000663,0.00000224,-0.00000386,0.00000149,-0.00000003,-
 0.00000840,0.00000318,0.00000438,0.00000812,0.00000508,-0.00000011,-0.
 00000191,-0.00000092,-0.00000710,0.00000359,-0.00000035,0.00000595,-0.
 00000855,-0.00000317,-0.00000514,-0.00000542,-0.00000293,0.00001740,-0
 .00002780,-0.00003823,-0.00002766,0.00003795,0.00002920,-0.00004219,-0
 .00001410,-0.00001528,-0.00001401,-0.00003694,0.00000194,0.00001042,-0
 .00000012,-0.00000665,0.00000161,0.00030624,-0.00027848,0.00002535,-0.
 00009558,0.00004250,-0.00013385,-0.00026975,-0.00019351,0.00051341,0.0
 0030366,0.00124694,-0.00057267,0.00000493,0.00016662,-0.00003367,0.000
 00665,-0.00020916,0.00032621,-0.00144100,0.01089723,-0.00619388,0.0066
 4497,-0.02153131,0.01520643,0.04496836,-0.00027252,-0.00015673,0.00046
 124,-0.00008792,-0.00035630,0.00000638,-0.00005805,0.00088999,-0.00007
 354,0.00020175,0.00028180,-0.00024772,-0.00047282,0.00009538,0.0002639
 8,0.00068940,-0.00021925,0.00051773,-0.00009411,-0.00011240,-0.0000589
 4,0.00000763,0.00000140,-0.00000603,0.00000687,-0.00001512,-0.00000460
 ,-0.00003258,0.00000863,-0.00001161,-0.00011005,0.00008899,-0.00003289
 ,-0.00023060,0.00010639,0.00002111,-0.00000062,0.00003905,-0.00000597,
 0.00009378,-0.00003038,0.00002889,0.00015612,0.00014837,0.00010070,0.0
 0089749,-0.00165814,0.00173638,0.00020706,0.00024774,-0.00037603,0.000
 23296,-0.00008543,0.00012901,-0.00002002,-0.00001158,0.00006025,-0.000
 06418,0.00008137,-0.00020852,-0.00003383,0.00000368,0.00004905,-0.0018
 3091,-0.01657809,0.01216698,0.00005688,0.00002572,-0.00001195,0.000000
 73,0.00007530,0.00008773,-0.00002516,-0.00001767,0.00001160,0.00806241
 ,-0.23913477,0.12056198,-0.00138717,0.00064445,0.00033891,0.00333234,-
 0.00279773,-0.00380363,0.00002819,0.00013136,-0.00005118,0.00000525,-0
 .00000157,-0.00003189,0.00000043,-0.00000094,-0.00002345,0.00001246,0.
 00000940,0.00000282,0.00004401,0.00000610,-0.00000927,0.00001096,0.000
 01725,-0.00001061,-0.00001473,-0.00000121,-0.00000388,-0.00003611,0.00
 001737,0.00011319,-0.00097355,-0.00064917,-0.00050979,0.00011229,0.000
 02531,-0.00000679,0.00000141,-0.00000384,0.00000542,-0.00000304,-0.000
 00468,-0.00000576,0.00000553,0.00000925,-0.00000072,-0.00000701,0.0000
 0152,-0.00000129,-0.00001180,0.00000386,0.00000727,0.00000925,0.000005
 84,0.00000026,-0.00001359,0.00000740,-0.00001128,-0.00003025,0.0000073
 7,-0.00004269,0.00000440,0.00001212,0.00000714,-0.00002785,0.00002976,
 -0.00007579,0.00005097,0.00006595,0.00005350,-0.00012805,-0.00003412,0
 .00002255,-0.00000066,0.00002582,-0.00000345,0.00002116,-0.00002018,0.
 00001924,0.00000662,0.00002079,-0.00006539,-0.00010541,0.00022015,-0.0
 0029497,0.00006845,-0.00003695,-0.00004904,0.00068661,0.00051040,-0.00
 030846,0.00022991,-0.00117099,0.00127892,0.00005091,0.00037415,-0.0000
 9701,-0.00002218,0.00029519,-0.00004001,-0.00071385,0.00568838,-0.0041
 6535,0.00376062,-0.00719670,0.00461955,-0.01220507,0.26011454,-0.00003
 113,-0.00002044,-0.00042127,0.00009253,0.00007168,0.00006218,-0.001436
 95,0.00000829,-0.00125241,0.00003258,-0.00000207,0.00001507,0.00012584
 ,-0.00006678,-0.00003135,-0.00045740,0.00021537,-0.00060478,0.00000656
 ,0.00003614,-0.00000949,0.00001813,0.00000058,0.00001118,0.00002644,-0
 .00002624,-0.00000004,0.00001080,0.00003062,0.00003363,-0.00022039,-0.
 00050139,-0.00120819,0.00000443,-0.00002148,0.00001213,0.00001641,-0.0
 0000841,0.00000097,-0.00002995,0.00003179,-0.00000814,-0.00000422,-0.0
 0010542,-0.00004020,-0.00021197,-0.00060034,0.00058999,0.00019287,0.00
 010357,-0.00049410,0.00004009,0.00003708,-0.00026437,-0.00000944,0.000
 00472,-0.00003038,0.00021378,0.00007400,0.00009033,-0.00000894,-0.0000
 1126,-0.00000482,0.00027329,-0.01327706,0.00719624,-0.00009521,0.00003
 169,0.00002246,-0.00001789,-0.00000248,0.00003398,0.00001064,0.0000245
 5,0.,-0.00363013,0.12307068,-0.11974734,-0.00059104,-0.00025812,0.0005
 2781,0.00129337,-0.00178595,-0.00092855,-0.00000241,-0.00003412,0.0000
 0728,-0.00000172,0.00000315,0.00000529,0.00000268,0.00000016,0.0000092
 0,-0.00000386,-0.00000217,0.00000069,-0.00002779,-0.00000743,0.0000056
 1,-0.00000371,-0.00000326,0.00000393,0.00001170,-0.00000020,0.00000087
 ,-0.00005774,-0.00005730,-0.00007843,0.00030800,0.00031313,0.00039968,
 -0.00000556,-0.00003448,-0.00003441,-0.00000124,-0.00000151,-0.0000008
 0,0.00000294,0.00000152,0.00000466,0.00000048,-0.00000021,-0.00000236,
 0.00000395,-0.00000083,0.00000317,0.00000157,-0.00000186,-0.00000348,-
 0.00000102,-0.00000016,-0.00000182,0.00000137,0.00002207,0.00004039,0.
 00000389,-0.00001159,-0.00000659,0.00000041,-0.00000491,0.00000008,-0.
 00001507,0.00001261,0.00000171,0.00000209,0.00000086,0.00000565,-0.000
 01408,0.00000546,0.00001312,-0.00001476,0.00000469,0.00000576,-0.00000
 616,0.00000076,0.00000027,0.00000469,0.00000257,-0.00000362,-0.0002128
 8,-0.00015239,-0.00002183,0.00002088,0.00020920,-0.00017729,-0.0001234
 8,0.00020755,0.00014334,0.00033335,-0.00063037,0.00089591,0.00002588,-
 0.00005245,-0.00019998,0.00036247,-0.00011851,0.00041787,0.00021680,0.
 02360097,-0.01372379,-0.00179600,0.00146058,-0.00312688,0.00532873,-0.
 13182837,0.13175492,0.00076697,-0.00287267,0.00062405,0.00001382,-0.00
 103377,0.00001235,-0.00040195,-0.00086256,0.00018274,0.00016411,0.0000
 4279,-0.00001978,0.00003203,-0.00025048,0.00002358,0.00010344,-0.00002
 059,-0.00006909,0.00070113,-0.00039695,0.00010353,0.00004044,-0.000070
 91,-0.00004014,0.00001650,-0.00001721,-0.00001503,-0.00001738,-0.00000
 812,-0.00000188,-0.00095008,-0.00082129,-0.00005040,0.00611913,-0.0007
 1458,-0.00127877,0.00010327,-0.00009699,-0.00012897,-0.00010514,0.0002
 5572,0.00006751,-0.00024498,0.00003485,-0.00004480,0.00384691,0.003079
 76,0.00486799,0.00007891,-0.00039968,0.00020098,0.01991648,-0.00097505
 ,-0.01580140,-0.00095945,-0.00103977,-0.00121330,-0.00163857,-0.001098
 95,-0.00034438,0.00039281,-0.00016241,0.00024947,0.00007415,0.00004551
 ,-0.00024380,-0.00145841,-0.00037777,-0.00024467,-0.00012199,-0.000201
 24,0.00011299,-0.00030154,0.00051541,-0.00002172,-0.00014492,-0.000008
 40,-0.00006174,0.00003212,0.00003411,0.00000292,-0.00005781,-0.0000783
 0,-0.00010833,-0.00048385,0.00247632,0.00159688,-0.00011879,-0.0008424
 0,-0.00018417,0.00032412,0.00030395,0.00084632,0.00036210,0.00155751,0
 .00009258,-0.00021778,-0.00007025,0.00012375,-0.00006200,0.00007143,-0
 .00008948,0.00012376,0.00008532,-0.00012189,-0.10429878,-0.04460831,-0
 .19758236,-0.00382668,0.00018685,-0.00689912,-0.00023169,-0.00022313,-
 0.00105886,-0.00018349,-0.00005330,-0.00026738,0.00035951,0.00009289,0
 .00002451,0.00003105,0.00002612,0.00012221,0.00023620,-0.00008742,0.00
 003964,-0.00038904,0.00017107,0.00008427,-0.00017528,-0.00001648,-0.00
 000335,-0.00050093,0.00006726,-0.00020612,-0.00150620,0.00079408,-0.00
 057218,-0.00110412,-0.00061250,0.00006979,-0.00005032,0.00005209,0.000
 05448,0.00010087,-0.00004326,0.00000555,-0.00006270,0.00003249,-0.0000
 7144,-0.00016105,-0.00005856,0.00014294,-0.00005568,-0.00006956,-0.000
 00119,0.00006920,-0.00001745,0.00002300,0.00001321,0.00000348,0.000030
 09,-0.00001625,-0.00002121,-0.00005077,0.00000457,0.00000412,0.0000307
 7,-0.00000341,-0.00000331,0.00004149,0.00002894,-0.00003411,0.00003040
 ,-0.00004242,-0.00001444,-0.00008059,-0.00000748,-0.00004330,-0.000065
 04,0.00008417,0.00014295,-0.00003083,-0.00003516,-0.00004113,0.0000425
 0,0.08579544,0.00048673,-0.00179336,0.00216998,0.00054772,-0.00101369,
 -0.00010949,-0.00022475,-0.00111482,0.00037343,-0.00001061,0.00014436,
 -0.00003287,-0.00000759,-0.00024619,0.00000170,-0.00004046,0.00002116,
 -0.00009800,0.00043640,-0.00042850,-0.00020291,0.00002204,-0.00002018,
 -0.00001462,0.00001137,-0.00000963,0.00001317,-0.00000274,-0.00001629,
 -0.00000330,-0.00090232,-0.00062568,0.00019330,0.00657557,-0.00056533,
 0.00000387,0.00010420,-0.00005272,0.00000805,-0.00028757,0.00023500,0.
 00005630,-0.00003185,-0.00015167,0.00002658,0.00393812,0.00103815,0.00
 032571,0.00002284,-0.00029905,0.00016713,-0.01449952,0.03732529,-0.009
 57568,-0.00002025,-0.00074359,-0.00087348,-0.00011613,-0.00061059,-0.0
 0079443,0.00011286,-0.00023916,-0.00000905,-0.00060817,-0.00001343,0.0
 0006459,-0.00016869,-0.00070236,0.00113935,-0.00006778,0.00007751,0.00
 031282,-0.00001241,0.00046247,0.00053601,-0.00009488,-0.00005138,0.000
 10238,0.00003876,-0.00004698,-0.00020607,-0.00000715,-0.00006525,-0.00
 006702,-0.00074714,0.00266571,-0.00386480,0.00013034,0.00006869,0.0000
 0628,0.00009774,0.00019834,0.00029692,0.00057019,0.00016149,-0.0000889
 7,-0.00019749,-0.00001968,0.00009439,0.00016803,0.00005939,0.00000019,
 0.00010445,0.00010217,0.00000202,-0.04525538,-0.10058159,-0.18363849,0
 .00263527,-0.00757449,-0.00951218,-0.00071878,-0.00000707,0.00151220,-
 0.00013430,-0.00004564,-0.00031120,0.00027441,0.00003753,0.00001637,-0
 .00001367,0.00006089,0.00006799,0.00009717,-0.00006414,0.00003710,-0.0
 0014985,0.00007490,0.00002124,0.00000412,-0.00001270,-0.00005174,0.000
 14209,0.00023777,0.00000672,-0.00049724,-0.00015067,-0.00000820,0.0000
 7905,0.00064466,-0.00075105,-0.00015530,0.00008971,0.00002960,0.000029
 45,-0.00008512,-0.00011128,0.00009223,-0.00001760,0.00004668,-0.000211
 71,-0.00007080,0.00011321,0.00015413,0.00009375,-0.00005410,0.00002600
 ,-0.00005034,-0.00004431,-0.00007234,0.00003889,0.00000325,-0.00010425
 ,-0.00003807,-0.00001292,0.00001111,-0.00003218,0.00002780,-0.00006198
 ,0.00002526,0.00000237,0.00016074,-0.00009990,0.00011208,-0.00006642,-
 0.00001329,-0.00005440,-0.00004785,-0.00000500,-0.00003592,0.00021172,
 0.00031942,-0.00007979,-0.00003999,-0.00004359,0.00004352,0.04829174,0
 .07353923,0.00442959,-0.01735245,0.00413430,0.00169301,-0.00458835,-0.
 00076132,-0.00044337,-0.00518861,0.00020469,0.00015038,-0.00002835,-0.
 00009831,0.00032755,-0.00096790,-0.00000380,-0.00028396,0.00008920,-0.
 00005247,0.00253738,-0.00206277,-0.00047915,0.00013667,-0.00019071,-0.
 00008098,0.00001826,-0.00006991,-0.00002577,-0.00009751,-0.00018690,-0
 .00003660,-0.00363787,-0.00344465,0.00102842,0.03155781,-0.00366345,-0
 .00093183,0.00042173,-0.00026800,-0.00004536,-0.00083277,0.00081599,0.
 00012639,-0.00071960,-0.00052201,0.00025273,0.01494774,0.00658726,-0.0
 0564591,0.00011374,-0.00114263,0.00073341,-0.06851854,0.00298493,-0.03
 609870,0.00056060,-0.00057164,-0.00337853,-0.00134961,-0.00387372,-0.0
 0156163,0.00143581,-0.00020484,-0.00006829,-0.00325921,-0.00088253,0.0
 0145849,-0.00018273,0.00167683,0.00014287,0.00025739,0.00056364,0.0012
 3586,-0.00052739,0.00181575,0.00146459,-0.00021427,-0.00005343,0.00021
 745,0.00010957,-0.00022429,-0.00142801,0.00005970,-0.00022066,-0.00004
 574,-0.00145095,0.01402102,0.00219522,0.00022254,-0.00154520,-0.000431
 67,0.00046036,0.00016394,0.00152652,0.00193231,0.00136080,-0.00053795,
 -0.00065495,-0.00016300,0.00044198,0.00034351,0.00020349,-0.00005568,0
 .00052558,0.00024315,-0.00008680,-0.19953361,-0.18236790,-0.85671821,0
 .00501655,-0.00187575,-0.03046379,0.00002065,-0.00000755,-0.00158996,-
 0.00059325,-0.00012331,-0.00076567,0.00081388,0.00015351,0.00014211,0.
 00001987,0.00013441,0.00017994,0.00059840,-0.00016128,0.00016893,-0.00
 055583,0.00029588,0.00006613,-0.00032964,-0.00001520,-0.00005209,0.000
 66175,-0.00007420,0.00065899,-0.00131275,-0.00231479,0.00093462,-0.001
 12474,0.00109926,-0.00158647,-0.00056298,0.00033821,0.00010097,0.00024
 350,-0.00038227,-0.00021956,0.00033398,-0.00024993,0.00031242,-0.00082
 043,-0.00027560,0.00045032,0.00044670,0.00018707,-0.00012014,0.0000363
 8,-0.00034778,-0.00012914,-0.00024346,0.00014759,0.00002806,-0.0005851
 8,-0.00022323,-0.00007232,0.00003489,-0.00015302,0.00012444,-0.0001230
 6,0.00010179,-0.00000708,0.00047937,-0.00021739,0.00044756,-0.00026207
 ,-0.00011349,-0.00020251,-0.00022330,-0.00009221,-0.00016283,0.0004611
 6,0.00094908,0.00016389,-0.00008894,-0.00019390,0.00011134,0.21712367,
 0.20267197,0.92489165\\-0.00001008,0.00000686,-0.00000211,0.00000485,0
 .00000185,-0.00000438,0.00000314,-0.00000761,-0.00000804,-0.00000317,-
 0.00000262,-0.00000198,0.00000307,-0.00000091,-0.00000256,-0.00000246,
 0.00000335,0.00000369,0.00000941,-0.00001138,0.00000070,0.00000100,0.0
 0000052,0.00000070,-0.00000020,0.00000010,0.00000029,0.00000042,-0.000
 00029,-0.00000022,0.00000275,-0.00000207,0.00000587,-0.00000271,0.0000
 1611,-0.00000583,0.00000199,0.00000404,0.00000909,-0.00000040,0.000001
 17,0.00000272,-0.00000330,0.00000141,-0.00000014,-0.00000024,0.0000027
 1,-0.00000137,0.00000323,-0.00000158,-0.00000021,0.00001679,-0.0000122
 3,0.00003753,0.00000496,0.00000531,0.00000243,0.00000111,0.00000127,-0
 .00000316,0.00001036,0.00000582,-0.00000931,-0.00000052,-0.00000607,-0
 .00000345,0.00000510,-0.00000262,0.00000100,-0.00000063,-0.00000386,-0
 .00000168,-0.00000202,0.00000218,-0.00000120,-0.00000040,0.00000470,-0
 .00000624,-0.00000017,0.00000976,-0.00000226,-0.00000564,-0.00000932,0
 .00000289,0.00000152,-0.00000326,-0.00000594,0.00000022,-0.00000120,-0
 .00000068,-0.00000270,-0.00000041,-0.00000083,0.00000234,0.00000067,0.
 00000009,0.00000192,-0.00000237,-0.00000012,-0.00000182,-0.00000905,0.
 00000598,-0.00000104,-0.00000095,0.00000552,-0.00001956,0.00000947,-0.
 00001184,-0.00002453,0.00001353,0.00001176,0.00000254,-0.00000999,-0.0
 0001244,0.00000274,0.00000078,-0.00000118,0.00000020,0.00000142,0.0000
 0254,-0.00000129,0.00000107,-0.00000078,0.00000018,-0.00000005,0.00000
 015,-0.00000013,-0.00000152,-0.00000166,-0.00000155,-0.00000082,0.0000
 0061,0.00000023,0.00000002,-0.00000077,-0.00000439,0.00000097,0.000001
 75,0.00000326,-0.00000250,-0.00000216,-0.00000216,-0.00000051,0.000000
 46,0.00000028,-0.00000097,-0.00000078,-0.00000089,-0.00000193,-0.00000
 190,-0.00000085,-0.00000186,0.00000012,0.00000213,-0.00000064,0.000002
 14,-0.00000195,-0.00000085,0.00000058,0.00000100,0.00000096,-0.0000008
 4,0.00000006,0.00000025,-0.00000072,0.00000092,0.00000043,0.00000241,0
 .00000008,0.00000576,0.00000134,-0.00000269,0.00000426,0.00000146,0.00
 000014,0.00000060,-0.00000201,-0.00000058,-0.00000065,0.00000296,0.000
 00211,0.00000091,0.00000139,0.00000230,-0.00000135,0.00000013,0.000005
 70,-0.00000680,-0.00000949\\\@


 ONLY A FOOL KNOWS EVERYTHING.

               -- THE CHEMIST ANALYST, SEPTEMBER 1946
 Job cpu time:       0 days 19 hours 39 minutes 22.7 seconds.
 Elapsed time:       0 days  0 hours 59 minutes  2.2 seconds.
 File lengths (MBytes):  RWF=   2077 Int=      0 D2E=      0 Chk=     30 Scr=      1
 Normal termination of Gaussian 16 at Mon Nov 12 22:41:25 2018.
