 Entering Gaussian System, Link 0=g16
 Initial command:
 /cluster/chemistry/gaussian/g16/l1.exe "/scratch/js1212.15461/scratch/Gau-30102.inp" -scrdir="/scratch/js1212.15461/scratch/"
 Entering Link 1 = /cluster/chemistry/gaussian/g16/l1.exe PID=     30104.
  
 Copyright (c) 1988,1990,1992,1993,1995,1998,2003,2009,2016,
            Gaussian, Inc.  All Rights Reserved.
  
 This is part of the Gaussian(R) 16 program.  It is based on
 the Gaussian(R) 09 system (copyright 2009, Gaussian, Inc.),
 the Gaussian(R) 03 system (copyright 2003, Gaussian, Inc.),
 the Gaussian(R) 98 system (copyright 1998, Gaussian, Inc.),
 the Gaussian(R) 94 system (copyright 1995, Gaussian, Inc.),
 the Gaussian 92(TM) system (copyright 1992, Gaussian, Inc.),
 the Gaussian 90(TM) system (copyright 1990, Gaussian, Inc.),
 the Gaussian 88(TM) system (copyright 1988, Gaussian, Inc.),
 the Gaussian 86(TM) system (copyright 1986, Carnegie Mellon
 University), and the Gaussian 82(TM) system (copyright 1983,
 Carnegie Mellon University). Gaussian is a federally registered
 trademark of Gaussian, Inc.
  
 This software contains proprietary and confidential information,
 including trade secrets, belonging to Gaussian, Inc.
  
 This software is provided under written license and may be
 used, copied, transmitted, or stored only in accord with that
 written license.
  
 The following legend is applicable only to US Government
 contracts under FAR:
  
                    RESTRICTED RIGHTS LEGEND
  
 Use, reproduction and disclosure by the US Government is
 subject to restrictions as set forth in subparagraphs (a)
 and (c) of the Commercial Computer Software - Restricted
 Rights clause in FAR 52.227-19.
  
 Gaussian, Inc.
 340 Quinnipiac St., Bldg. 40, Wallingford CT 06492
  
  
 ---------------------------------------------------------------
 Warning -- This program may not be used in any manner that
 competes with the business of Gaussian, Inc. or will provide
 assistance to any competitor of Gaussian, Inc.  The licensee
 of this program is prohibited from giving any competitor of
 Gaussian, Inc. access to this program.  By using this program,
 the user acknowledges that Gaussian, Inc. is engaged in the
 business of creating and licensing software in the field of
 computational chemistry and represents and warrants to the
 licensee that it is not a competitor of Gaussian, Inc. and that
 it will not use this program in any manner prohibited above.
 ---------------------------------------------------------------
  

 Cite this work as:
 Gaussian 16, Revision A.03,
 M. J. Frisch, G. W. Trucks, H. B. Schlegel, G. E. Scuseria, 
 M. A. Robb, J. R. Cheeseman, G. Scalmani, V. Barone, 
 G. A. Petersson, H. Nakatsuji, X. Li, M. Caricato, A. V. Marenich, 
 J. Bloino, B. G. Janesko, R. Gomperts, B. Mennucci, H. P. Hratchian, 
 J. V. Ortiz, A. F. Izmaylov, J. L. Sonnenberg, D. Williams-Young, 
 F. Ding, F. Lipparini, F. Egidi, J. Goings, B. Peng, A. Petrone, 
 T. Henderson, D. Ranasinghe, V. G. Zakrzewski, J. Gao, N. Rega, 
 G. Zheng, W. Liang, M. Hada, M. Ehara, K. Toyota, R. Fukuda, 
 J. Hasegawa, M. Ishida, T. Nakajima, Y. Honda, O. Kitao, H. Nakai, 
 T. Vreven, K. Throssell, J. A. Montgomery, Jr., J. E. Peralta, 
 F. Ogliaro, M. J. Bearpark, J. J. Heyd, E. N. Brothers, K. N. Kudin, 
 V. N. Staroverov, T. A. Keith, R. Kobayashi, J. Normand, 
 K. Raghavachari, A. P. Rendell, J. C. Burant, S. S. Iyengar, 
 J. Tomasi, M. Cossi, J. M. Millam, M. Klene, C. Adamo, R. Cammi, 
 J. W. Ochterski, R. L. Martin, K. Morokuma, O. Farkas, 
 J. B. Foresman, and D. J. Fox, Gaussian, Inc., Wallingford CT, 2016.
 
 ******************************************
 Gaussian 16:  ES64L-G16RevA.03 25-Dec-2016
                12-Nov-2018 
 ******************************************
 %rwf=/scratch/js1212.15461/2-Full-TPy-A-GPNMR.rwf
 %nosave
 %nprocshared=20
 Will use up to   20 processors via shared memory.
 %mem=3000MB
 %chk=/scratch/js1212.15461/2-Full-TPy-A-GPOF.chk
 ----------------------------------------------------------------------
 # nmr genecp pbe1pbe EmpiricalDispersion=GD3BJ scrf=(SMD,solvent=water
 ) geom=allcheck
 ----------------------------------------------------------------------
 1/29=7,38=1,172=1/1;
 2/12=2,40=1/2;
 3/5=7,11=2,14=-4,16=1,17=8,25=1,30=1,70=32201,72=1,74=-13,124=41/1,2,3,8;
 4//1;
 5/5=2,38=5,53=1/2;
 8/6=1,10=90,11=11/1;
 10/13=100,45=16/2;
 6/7=2,8=2,9=2,10=2,28=1/1;
 99/9=1/99;
 Structure from the checkpoint file:  "/scratch/js1212.15461/2-Full-TPy-A-GPOF.chk"
 -------------------
 Title Card Required
 -------------------
 Charge =  0 Multiplicity = 1
 Redundant internal coordinates found in file.  (old form).
 N,0,-0.7428211395,1.3650364245,-0.2818971154
 C,0,-1.9220247724,1.8237849578,0.1643572425
 C,0,0.1872114453,2.1963803226,-0.7799473562
 C,0,-2.2285921124,3.1804440369,0.1058135865
 C,0,-1.2778687333,4.0607855696,-0.4045796096
 C,0,-0.0547841795,3.5690592211,-0.8487446782
 C,0,-2.8197374265,0.7944058128,0.7932830599
 H,0,-3.1952658179,3.5370416364,0.4636281364
 H,0,-1.4905077418,5.1303355095,-0.4570466287
 H,0,0.7077484355,4.2378933546,-1.2495981908
 C,0,1.468181625,1.5699179036,-1.2569392174
 N,0,-2.8464060663,-0.4677338404,0.0484125288
 H,0,-3.8297825589,1.2135606042,0.9532363487
 H,0,-2.3689704699,0.5486365362,1.7697025401
 H,0,1.3550636922,1.3214490481,-2.326765972
 P,0,1.7900115441,-0.0839948878,-0.4164146699
 H,0,2.3071081501,2.2769101986,-1.173376206
 Ru,0,-0.3320933084,-0.8073352547,-0.1959104055
 C,0,-3.4939697941,-0.326291363,-1.2644865281
 C,0,3.0676232802,-0.897739936,-1.574850612
 C,0,-3.4137190149,-1.5253883435,0.8938283456
 C,0,2.6433497934,0.4190138489,1.2168302331
 C,0,2.3212761503,-1.5144388148,-2.7572443741
 C,0,3.7674882505,-2.0342268286,-0.827289842
 C,0,4.0933132734,0.0928747155,-2.1338742334
 C,0,1.7475891052,1.4667281584,1.8894810297
 C,0,4.0385972368,1.0163077869,1.0402287382
 C,0,2.7069105895,-0.8014835738,2.1386206615
 H,0,-0.0069672639,-2.3740642974,0.002614383
 H,0,-2.9566887309,0.4722431051,-1.7992465222
 C,0,-4.987708034,-0.030901255,-1.2522984244
 H,0,-3.2996986197,-1.246106345,-1.8318347947
 H,0,-2.7863736804,-1.5289476568,1.797722685
 C,0,-3.3773570448,-2.8912987011,0.2409500166
 H,0,-4.4473937415,-1.2663904649,1.2016017865
 C,0,-0.5547241535,-1.1357091158,-1.9745948461
 O,0,-0.5412330457,-0.6118269845,1.8875409833
 H,0,-0.3309083971,-1.4638841706,2.2866926529
 H,0,-2.3527959421,-3.114641421,-0.0972242632
 H,0,-4.0586496557,-2.9736400363,-0.6196676127
 H,0,-3.6776609637,-3.6560809538,0.972407618
 H,0,-5.3450327616,0.0721478032,-2.2879114866
 H,0,-5.2297988611,0.9064344197,-0.7284574373
 H,0,-5.5668394073,-0.8406114645,-0.783205021
 H,0,3.0623178704,-1.9518862125,-3.446884569
 H,0,1.7383639437,-0.7757223124,-3.3255288851
 H,0,1.6394325755,-2.310283436,-2.4327238696
 H,0,4.3590435719,-2.6239703534,-1.5470609445
 H,0,3.0355511868,-2.7101078921,-0.3592394017
 H,0,4.45700274,-1.6723700252,-0.0529454934
 H,0,4.8004808384,-0.4595193912,-2.77507934
 H,0,4.679536671,0.6013606733,-1.3607026848
 H,0,3.6190671968,0.8574002277,-2.7670763168
 H,0,4.7776074752,0.2866160469,0.6823026855
 H,0,4.3865915601,1.3746277208,2.0236412352
 H,0,4.0448697193,1.8835308819,0.3618413791
 H,0,3.3412486484,-1.6058076706,1.7456971132
 H,0,1.6938371594,-1.1876202418,2.3050627732
 H,0,3.124004401,-0.4885766601,3.1107557457
 H,0,2.1853004171,1.7060632992,2.8735975022
 H,0,0.737301857,1.0592648377,2.0489923304
 H,0,1.7010372415,2.4074775882,1.3200010125
 O,0,-0.8276442062,-1.3853023449,-3.0824268007
 Recover connectivity data from disk.
                           ----------------------------
                           !    Current Parameters    !
                           ! (Angstroms and Degrees)  !
 --------------------------                            --------------------------
 ! Name  Definition              Value                                          !
 --------------------------------------------------------------------------------
 ! R1    R(1,2)                  1.3417                                         !
 ! R2    R(1,3)                  1.3432                                         !
 ! R3    R(1,18)                 2.2125                                         !
 ! R4    R(2,4)                  1.3921                                         !
 ! R5    R(2,7)                  1.5037                                         !
 ! R6    R(3,6)                  1.3955                                         !
 ! R7    R(3,11)                 1.5036                                         !
 ! R8    R(4,5)                  1.3926                                         !
 ! R9    R(4,8)                  1.0907                                         !
 ! R10   R(5,6)                  1.391                                          !
 ! R11   R(5,9)                  1.0917                                         !
 ! R12   R(6,10)                 1.0906                                         !
 ! R13   R(7,12)                 1.4658                                         !
 ! R14   R(7,13)                 1.1052                                         !
 ! R15   R(7,14)                 1.1032                                         !
 ! R16   R(11,15)                1.1041                                         !
 ! R17   R(11,16)                1.8829                                         !
 ! R18   R(11,17)                1.1003                                         !
 ! R19   R(12,19)                1.4707                                         !
 ! R20   R(12,21)                1.4681                                         !
 ! R21   R(16,18)                2.2528                                         !
 ! R22   R(16,20)                1.9069                                         !
 ! R23   R(16,22)                1.9102                                         !
 ! R24   R(18,29)                1.6124                                         !
 ! R25   R(18,36)                1.8224                                         !
 ! R26   R(18,37)                2.103                                          !
 ! R27   R(19,30)                1.101                                          !
 ! R28   R(19,31)                1.5227                                         !
 ! R29   R(19,32)                1.098                                          !
 ! R30   R(20,23)                1.5282                                         !
 ! R31   R(20,24)                1.5298                                         !
 ! R32   R(20,25)                1.5316                                         !
 ! R33   R(21,33)                1.1003                                         !
 ! R34   R(21,34)                1.5144                                         !
 ! R35   R(21,35)                1.1092                                         !
 ! R36   R(22,26)                1.5338                                         !
 ! R37   R(22,27)                1.528                                          !
 ! R38   R(22,28)                1.5308                                         !
 ! R39   R(23,45)                1.1028                                         !
 ! R40   R(23,46)                1.0993                                         !
 ! R41   R(23,47)                1.0971                                         !
 ! R42   R(24,48)                1.1026                                         !
 ! R43   R(24,49)                1.1007                                         !
 ! R44   R(24,50)                1.0982                                         !
 ! R45   R(25,51)                1.1029                                         !
 ! R46   R(25,52)                1.0954                                         !
 ! R47   R(25,53)                1.1002                                         !
 ! R48   R(26,60)                1.1033                                         !
 ! R49   R(26,61)                1.101                                          !
 ! R50   R(26,62)                1.1007                                         !
 ! R51   R(27,54)                1.0985                                         !
 ! R52   R(27,55)                1.103                                          !
 ! R53   R(27,56)                1.1011                                         !
 ! R54   R(28,57)                1.0971                                         !
 ! R55   R(28,58)                1.0969                                         !
 ! R56   R(28,59)                1.1031                                         !
 ! R57   R(31,42)                1.1004                                         !
 ! R58   R(31,43)                1.1007                                         !
 ! R59   R(31,44)                1.1005                                         !
 ! R60   R(34,39)                1.1018                                         !
 ! R61   R(34,40)                1.1007                                         !
 ! R62   R(34,41)                1.1                                            !
 ! R63   R(36,63)                1.1679                                         !
 ! R64   R(37,38)                0.9641                                         !
 ! A1    A(2,1,3)              121.3497                                         !
 ! A2    A(2,1,18)             119.0743                                         !
 ! A3    A(3,1,18)             119.5758                                         !
 ! A4    A(1,2,4)              120.8491                                         !
 ! A5    A(1,2,7)              115.4522                                         !
 ! A6    A(4,2,7)              123.5911                                         !
 ! A7    A(1,3,6)              120.4646                                         !
 ! A8    A(1,3,11)             116.7204                                         !
 ! A9    A(6,3,11)             122.8132                                         !
 ! A10   A(2,4,5)              118.7591                                         !
 ! A11   A(2,4,8)              119.9998                                         !
 ! A12   A(5,4,8)              121.239                                          !
 ! A13   A(4,5,6)              119.592                                          !
 ! A14   A(4,5,9)              120.2613                                         !
 ! A15   A(6,5,9)              120.1466                                         !
 ! A16   A(3,6,5)              118.9751                                         !
 ! A17   A(3,6,10)             120.0057                                         !
 ! A18   A(5,6,10)             121.0189                                         !
 ! A19   A(2,7,12)             112.8163                                         !
 ! A20   A(2,7,13)             110.2742                                         !
 ! A21   A(2,7,14)             106.1867                                         !
 ! A22   A(12,7,13)            112.5496                                         !
 ! A23   A(12,7,14)            105.3898                                         !
 ! A24   A(13,7,14)            109.258                                          !
 ! A25   A(3,11,15)            108.2919                                         !
 ! A26   A(3,11,16)            111.7133                                         !
 ! A27   A(3,11,17)            110.9626                                         !
 ! A28   A(15,11,16)           104.6179                                         !
 ! A29   A(15,11,17)           107.2358                                         !
 ! A30   A(16,11,17)           113.5893                                         !
 ! A31   A(7,12,19)            112.2616                                         !
 ! A32   A(7,12,21)            109.5566                                         !
 ! A33   A(19,12,21)           114.4067                                         !
 ! A34   A(11,16,18)            99.4809                                         !
 ! A35   A(11,16,20)           102.601                                          !
 ! A36   A(11,16,22)           103.1046                                         !
 ! A37   A(18,16,20)           123.6109                                         !
 ! A38   A(18,16,22)           114.9407                                         !
 ! A39   A(20,16,22)           109.4196                                         !
 ! A40   A(1,18,16)             81.7095                                         !
 ! A41   A(1,18,36)             96.6791                                         !
 ! A42   A(1,18,37)             85.915                                          !
 ! A43   A(16,18,29)            97.7066                                         !
 ! A44   A(16,18,36)            94.4391                                         !
 ! A45   A(16,18,37)            99.2531                                         !
 ! A46   A(29,18,36)            88.2648                                         !
 ! A47   A(29,18,37)            89.3357                                         !
 ! A48   A(12,19,30)           106.7656                                         !
 ! A49   A(12,19,31)           116.3231                                         !
 ! A50   A(12,19,32)           107.6248                                         !
 ! A51   A(30,19,31)           109.9918                                         !
 ! A52   A(30,19,32)           105.6792                                         !
 ! A53   A(31,19,32)           109.8889                                         !
 ! A54   A(16,20,23)           108.3618                                         !
 ! A55   A(16,20,24)           109.0666                                         !
 ! A56   A(16,20,25)           113.2283                                         !
 ! A57   A(23,20,24)           107.5613                                         !
 ! A58   A(23,20,25)           107.7981                                         !
 ! A59   A(24,20,25)           110.639                                          !
 ! A60   A(12,21,33)           104.7786                                         !
 ! A61   A(12,21,34)           113.0957                                         !
 ! A62   A(12,21,35)           110.5911                                         !
 ! A63   A(33,21,34)           109.7288                                         !
 ! A64   A(33,21,35)           107.7076                                         !
 ! A65   A(34,21,35)           110.6475                                         !
 ! A66   A(16,22,26)           107.0948                                         !
 ! A67   A(16,22,27)           114.3337                                         !
 ! A68   A(16,22,28)           108.8725                                         !
 ! A69   A(26,22,27)           108.4787                                         !
 ! A70   A(26,22,28)           107.7454                                         !
 ! A71   A(27,22,28)           110.0812                                         !
 ! A72   A(20,23,45)           108.4062                                         !
 ! A73   A(20,23,46)           112.8157                                         !
 ! A74   A(20,23,47)           111.5556                                         !
 ! A75   A(45,23,46)           107.4338                                         !
 ! A76   A(45,23,47)           108.3528                                         !
 ! A77   A(46,23,47)           108.1095                                         !
 ! A78   A(20,24,48)           108.8924                                         !
 ! A79   A(20,24,49)           111.0844                                         !
 ! A80   A(20,24,50)           112.7695                                         !
 ! A81   A(48,24,49)           107.8123                                         !
 ! A82   A(48,24,50)           107.4379                                         !
 ! A83   A(49,24,50)           108.6633                                         !
 ! A84   A(20,25,51)           108.5207                                         !
 ! A85   A(20,25,52)           113.6397                                         !
 ! A86   A(20,25,53)           111.7681                                         !
 ! A87   A(51,25,52)           107.4397                                         !
 ! A88   A(51,25,53)           106.8483                                         !
 ! A89   A(52,25,53)           108.3212                                         !
 ! A90   A(22,26,60)           107.9176                                         !
 ! A91   A(22,26,61)           110.282                                          !
 ! A92   A(22,26,62)           112.4347                                         !
 ! A93   A(60,26,61)           108.3663                                         !
 ! A94   A(60,26,62)           107.0294                                         !
 ! A95   A(61,26,62)           110.6384                                         !
 ! A96   A(22,27,54)           113.0981                                         !
 ! A97   A(22,27,55)           108.1821                                         !
 ! A98   A(22,27,56)           112.6006                                         !
 ! A99   A(54,27,55)           107.1005                                         !
 ! A100  A(54,27,56)           108.5787                                         !
 ! A101  A(55,27,56)           106.9574                                         !
 ! A102  A(22,28,57)           113.1323                                         !
 ! A103  A(22,28,58)           109.4935                                         !
 ! A104  A(22,28,59)           108.6748                                         !
 ! A105  A(57,28,58)           109.2851                                         !
 ! A106  A(57,28,59)           107.7549                                         !
 ! A107  A(58,28,59)           108.3816                                         !
 ! A108  A(19,31,42)           109.2195                                         !
 ! A109  A(19,31,43)           112.6284                                         !
 ! A110  A(19,31,44)           112.1428                                         !
 ! A111  A(42,31,43)           107.2613                                         !
 ! A112  A(42,31,44)           107.4091                                         !
 ! A113  A(43,31,44)           107.9359                                         !
 ! A114  A(21,34,39)           109.7239                                         !
 ! A115  A(21,34,40)           112.9353                                         !
 ! A116  A(21,34,41)           109.5027                                         !
 ! A117  A(39,34,40)           108.6881                                         !
 ! A118  A(39,34,41)           108.4824                                         !
 ! A119  A(40,34,41)           107.3922                                         !
 ! A120  A(18,37,38)           107.836                                          !
 ! A121  L(1,18,29,16,-1)      179.416                                          !
 ! A122  L(36,18,37,1,-1)      182.594                                          !
 ! A123  L(18,36,63,3,-1)      183.0326                                         !
 ! A124  L(1,18,29,16,-2)      175.0361                                         !
 ! A125  L(36,18,37,1,-2)      166.4827                                         !
 ! A126  L(18,36,63,3,-2)      187.2906                                         !
 ! D1    D(3,1,2,4)              1.0104                                         !
 ! D2    D(3,1,2,7)           -175.3501                                         !
 ! D3    D(18,1,2,4)          -178.8542                                         !
 ! D4    D(18,1,2,7)             4.7854                                         !
 ! D5    D(2,1,3,6)             -0.1669                                         !
 ! D6    D(2,1,3,11)          -179.6914                                         !
 ! D7    D(18,1,3,6)           179.697                                          !
 ! D8    D(18,1,3,11)            0.1725                                         !
 ! D9    D(2,1,18,16)         -161.6217                                         !
 ! D10   D(2,1,18,36)          104.8416                                         !
 ! D11   D(2,1,18,37)          -61.6411                                         !
 ! D12   D(3,1,18,16)           18.5114                                         !
 ! D13   D(3,1,18,36)          -75.0253                                         !
 ! D14   D(3,1,18,37)          118.4919                                         !
 ! D15   D(1,2,4,5)             -1.1003                                         !
 ! D16   D(1,2,4,8)            179.4062                                         !
 ! D17   D(7,2,4,5)            174.9541                                         !
 ! D18   D(7,2,4,8)             -4.5393                                         !
 ! D19   D(1,2,7,12)           -42.4524                                         !
 ! D20   D(1,2,7,13)          -169.245                                          !
 ! D21   D(1,2,7,14)            72.5031                                         !
 ! D22   D(4,2,7,12)           141.2987                                         !
 ! D23   D(4,2,7,13)            14.5061                                         !
 ! D24   D(4,2,7,14)          -103.7457                                         !
 ! D25   D(1,3,6,5)             -0.5566                                         !
 ! D26   D(1,3,6,10)           179.6726                                         !
 ! D27   D(11,3,6,5)           178.938                                          !
 ! D28   D(11,3,6,10)           -0.8328                                         !
 ! D29   D(1,3,11,15)           90.5363                                         !
 ! D30   D(1,3,11,16)          -24.1555                                         !
 ! D31   D(1,3,11,17)         -152.0226                                         !
 ! D32   D(6,3,11,15)          -88.976                                          !
 ! D33   D(6,3,11,16)          156.3322                                         !
 ! D34   D(6,3,11,17)           28.4651                                         !
 ! D35   D(2,4,5,6)              0.3681                                         !
 ! D36   D(2,4,5,9)           -179.6864                                         !
 ! D37   D(8,4,5,6)            179.855                                          !
 ! D38   D(8,4,5,9)             -0.1995                                         !
 ! D39   D(4,5,6,3)              0.436                                          !
 ! D40   D(4,5,6,10)          -179.7956                                         !
 ! D41   D(9,5,6,3)           -179.5096                                         !
 ! D42   D(9,5,6,10)             0.2588                                         !
 ! D43   D(2,7,12,19)          -67.7324                                         !
 ! D44   D(2,7,12,21)          164.0072                                         !
 ! D45   D(13,7,12,19)          57.8402                                         !
 ! D46   D(13,7,12,21)         -70.4202                                         !
 ! D47   D(14,7,12,19)         176.8332                                         !
 ! D48   D(14,7,12,21)          48.5727                                         !
 ! D49   D(3,11,16,18)          33.886                                          !
 ! D50   D(3,11,16,20)         161.6493                                         !
 ! D51   D(3,11,16,22)         -84.6575                                         !
 ! D52   D(15,11,16,18)        -83.0496                                         !
 ! D53   D(15,11,16,20)         44.7136                                         !
 ! D54   D(15,11,16,22)        158.4069                                         !
 ! D55   D(17,11,16,18)        160.3332                                         !
 ! D56   D(17,11,16,20)        -71.9035                                         !
 ! D57   D(17,11,16,22)         41.7897                                         !
 ! D58   D(7,12,19,30)          55.975                                          !
 ! D59   D(7,12,19,31)         -67.2149                                         !
 ! D60   D(7,12,19,32)         169.0453                                         !
 ! D61   D(21,12,19,30)       -178.3675                                         !
 ! D62   D(21,12,19,31)         58.4426                                         !
 ! D63   D(21,12,19,32)        -65.2973                                         !
 ! D64   D(7,12,21,33)         -55.9284                                         !
 ! D65   D(7,12,21,34)        -175.4031                                         !
 ! D66   D(7,12,21,35)          59.8663                                         !
 ! D67   D(19,12,21,33)        177.0101                                         !
 ! D68   D(19,12,21,34)         57.5354                                         !
 ! D69   D(19,12,21,35)        -67.1952                                         !
 ! D70   D(11,16,18,1)         -24.5572                                         !
 ! D71   D(11,16,18,29)        160.4067                                         !
 ! D72   D(11,16,18,36)         71.5609                                         !
 ! D73   D(11,16,18,37)       -109.0093                                         !
 ! D74   D(20,16,18,1)        -136.6794                                         !
 ! D75   D(20,16,18,29)         48.2845                                         !
 ! D76   D(20,16,18,36)        -40.5613                                         !
 ! D77   D(20,16,18,37)        138.8685                                         !
 ! D78   D(22,16,18,1)          84.7828                                         !
 ! D79   D(22,16,18,29)        -90.2534                                         !
 ! D80   D(22,16,18,36)       -179.0991                                         !
 ! D81   D(22,16,18,37)          0.3307                                         !
 ! D82   D(11,16,20,23)        -81.1114                                         !
 ! D83   D(11,16,20,24)        162.0754                                         !
 ! D84   D(11,16,20,25)         38.4215                                         !
 ! D85   D(18,16,20,23)         29.4525                                         !
 ! D86   D(18,16,20,24)        -87.3608                                         !
 ! D87   D(18,16,20,25)        148.9854                                         !
 ! D88   D(22,16,20,23)        169.9141                                         !
 ! D89   D(22,16,20,24)         53.1008                                         !
 ! D90   D(22,16,20,25)        -70.5531                                         !
 ! D91   D(11,16,22,26)         52.1902                                         !
 ! D92   D(11,16,22,27)        -68.0093                                         !
 ! D93   D(11,16,22,28)        168.4295                                         !
 ! D94   D(18,16,22,26)        -54.9539                                         !
 ! D95   D(18,16,22,27)       -175.1533                                         !
 ! D96   D(18,16,22,28)         61.2855                                         !
 ! D97   D(20,16,22,26)        160.8274                                         !
 ! D98   D(20,16,22,27)         40.6279                                         !
 ! D99   D(20,16,22,28)        -82.9333                                         !
 ! D100  D(1,18,37,38)        -175.1478                                         !
 ! D101  D(16,18,37,38)        -94.2444                                         !
 ! D102  D(29,18,37,38)          3.4557                                         !
 ! D103  D(12,19,31,42)        178.8184                                         !
 ! D104  D(12,19,31,43)         59.7555                                         !
 ! D105  D(12,19,31,44)        -62.2383                                         !
 ! D106  D(30,19,31,42)         57.3216                                         !
 ! D107  D(30,19,31,43)        -61.7414                                         !
 ! D108  D(30,19,31,44)        176.2649                                         !
 ! D109  D(32,19,31,42)        -58.619                                          !
 ! D110  D(32,19,31,43)       -177.682                                          !
 ! D111  D(32,19,31,44)         60.3243                                         !
 ! D112  D(16,20,23,45)        177.8857                                         !
 ! D113  D(16,20,23,46)         59.0333                                         !
 ! D114  D(16,20,23,47)        -62.8884                                         !
 ! D115  D(24,20,23,45)        -64.3355                                         !
 ! D116  D(24,20,23,46)        176.8121                                         !
 ! D117  D(24,20,23,47)         54.8904                                         !
 ! D118  D(25,20,23,45)         54.9979                                         !
 ! D119  D(25,20,23,46)        -63.8545                                         !
 ! D120  D(25,20,23,47)        174.2238                                         !
 ! D121  D(16,20,24,48)        169.2218                                         !
 ! D122  D(16,20,24,49)         50.6367                                         !
 ! D123  D(16,20,24,50)        -71.6248                                         !
 ! D124  D(23,20,24,48)         51.9007                                         !
 ! D125  D(23,20,24,49)        -66.6844                                         !
 ! D126  D(23,20,24,50)        171.0541                                         !
 ! D127  D(25,20,24,48)        -65.6023                                         !
 ! D128  D(25,20,24,49)        175.8126                                         !
 ! D129  D(25,20,24,50)         53.5511                                         !
 ! D130  D(16,20,25,51)        179.0133                                         !
 ! D131  D(16,20,25,52)         59.5638                                         !
 ! D132  D(16,20,25,53)        -63.4114                                         !
 ! D133  D(23,20,25,51)        -61.1311                                         !
 ! D134  D(23,20,25,52)        179.4194                                         !
 ! D135  D(23,20,25,53)         56.4442                                         !
 ! D136  D(24,20,25,51)         56.2264                                         !
 ! D137  D(24,20,25,52)        -63.2231                                         !
 ! D138  D(24,20,25,53)        173.8017                                         !
 ! D139  D(12,21,34,39)         52.8887                                         !
 ! D140  D(12,21,34,40)        -68.5317                                         !
 ! D141  D(12,21,34,41)        171.8519                                         !
 ! D142  D(33,21,34,39)        -63.697                                          !
 ! D143  D(33,21,34,40)        174.8826                                         !
 ! D144  D(33,21,34,41)         55.2662                                         !
 ! D145  D(35,21,34,39)        177.5886                                         !
 ! D146  D(35,21,34,40)         56.1682                                         !
 ! D147  D(35,21,34,41)        -63.4481                                         !
 ! D148  D(16,22,26,60)        175.4182                                         !
 ! D149  D(16,22,26,61)         57.2196                                         !
 ! D150  D(16,22,26,62)        -66.7752                                         !
 ! D151  D(27,22,26,60)        -60.7121                                         !
 ! D152  D(27,22,26,61)       -178.9107                                         !
 ! D153  D(27,22,26,62)         57.0945                                         !
 ! D154  D(28,22,26,60)         58.4344                                         !
 ! D155  D(28,22,26,61)        -59.7642                                         !
 ! D156  D(28,22,26,62)        176.2411                                         !
 ! D157  D(16,22,27,54)        -67.9509                                         !
 ! D158  D(16,22,27,55)        173.5884                                         !
 ! D159  D(16,22,27,56)         55.6032                                         !
 ! D160  D(26,22,27,54)        172.6245                                         !
 ! D161  D(26,22,27,55)         54.1638                                         !
 ! D162  D(26,22,27,56)        -63.8214                                         !
 ! D163  D(28,22,27,54)         54.9578                                         !
 ! D164  D(28,22,27,55)        -63.5028                                         !
 ! D165  D(28,22,27,56)        178.512                                          !
 ! D166  D(16,22,28,57)         64.9778                                         !
 ! D167  D(16,22,28,58)        -57.177                                          !
 ! D168  D(16,22,28,59)       -175.3903                                         !
 ! D169  D(26,22,28,57)       -179.2008                                         !
 ! D170  D(26,22,28,58)         58.6444                                         !
 ! D171  D(26,22,28,59)        -59.5689                                         !
 ! D172  D(27,22,28,57)        -61.081                                          !
 ! D173  D(27,22,28,58)        176.7642                                         !
 ! D174  D(27,22,28,59)         58.5509                                         !
 --------------------------------------------------------------------------------
 Stoichiometry    C20H37N2O2PRu
 Framework group  C1[X(C20H37N2O2PRu)]
 Deg. of freedom   183
 Full point group                 C1      NOp   1
 Largest Abelian subgroup         C1      NOp   1
 Largest concise Abelian subgroup C1      NOp   1
                         Standard orientation:                         
 ---------------------------------------------------------------------
 Center     Atomic      Atomic             Coordinates (Angstroms)
 Number     Number       Type             X           Y           Z
 ---------------------------------------------------------------------
      1          7           0       -0.746353    1.307301   -0.320332
      2          6           0       -1.938782    1.841970   -0.016431
      3          6           0        0.188681    2.012743   -0.977758
      4          6           0       -2.253892    3.144574   -0.393076
      5          6           0       -1.298251    3.895096   -1.073403
      6          6           0       -0.061759    3.329370   -1.366752
      7          6           0       -2.843041    0.974461    0.814715
      8          1           0       -3.231082    3.562087   -0.147242
      9          1           0       -1.517489    4.920935   -1.375883
     10          1           0        0.704797    3.897054   -1.895529
     11          6           0        1.484783    1.309073   -1.270725
     12          7           0       -2.843411   -0.425747    0.381175
     13          1           0       -3.859529    1.406633    0.852741
     14          1           0       -2.412904    0.966299    1.830542
     15          1           0        1.397963    0.819016   -2.256306
     16         15           0        1.799471   -0.102071   -0.064438
     17          1           0        2.316364    2.026631   -1.335540
     18         44           0       -0.321746   -0.781301    0.273586
     19          6           0       -3.461834   -0.599190   -0.941897
     20          6           0        3.109158   -1.145268   -0.977074
     21          6           0       -3.422103   -1.266696    1.436223
     22          6           0        2.611556    0.774864    1.425594
     23          6           0        2.394569   -2.027432   -2.000087
     24          6           0        3.800094   -2.069755    0.027015
     25          6           0        4.140045   -0.297752   -1.728641
     26          6           0        1.692988    1.938324    1.819480
     27          6           0        4.006047    1.332562    1.144472
     28          6           0        2.663008   -0.199053    2.605505
     29          1           0        0.010263   -2.255751    0.835305
     30          1           0       -2.918359    0.060979   -1.635516
     31          6           0       -4.957591   -0.327544   -1.028947
     32          1           0       -3.247900   -1.622626   -1.277300
     33          1           0       -2.815562   -1.053750    2.329174
     34          6           0       -3.360800   -2.745850    1.117433
     35          1           0       -4.464414   -0.956521    1.654551
     36          6           0       -0.501265   -1.514060   -1.385314
     37          8           0       -0.579858   -0.112837    2.250772
     38          1           0       -0.372452   -0.847088    2.840194
     39          1           0       -2.327167   -3.028464    0.861109
     40          1           0       -4.021631   -3.033052    0.285315
     41          1           0       -3.672108   -3.324840    1.999455
     42          1           0       -5.291912   -0.470738   -2.067465
     43          1           0       -5.218467    0.702303   -0.740894
     44          1           0       -5.541323   -1.014262   -0.397481
     45          1           0        3.154367   -2.602992   -2.554655
     46          1           0        1.819379   -1.447117   -2.735497
     47          1           0        1.711356   -2.735302   -1.514565
     48          1           0        4.412256   -2.802299   -0.524749
     49          1           0        3.062641   -2.628406    0.623412
     50          1           0        4.469061   -1.530415    0.710809
     51          1           0        4.865716   -0.974389   -2.210235
     52          1           0        4.704700    0.382693   -1.081980
     53          1           0        3.674783    0.294041   -2.530929
     54          1           0        4.758383    0.549203    0.980044
     55          1           0        4.328842    1.912470    2.025439
     56          1           0        4.021443    2.019814    0.284371
     57          1           0        3.312049   -1.064401    2.422127
     58          1           0        1.649261   -0.548908    2.835812
     59          1           0        3.055474    0.334927    3.487413
     60          1           0        2.106332    2.403745    2.730462
     61          1           0        0.682341    1.566155    2.048029
     62          1           0        1.652547    2.721590    1.047248
     63          8           0       -0.746964   -2.015967   -2.410885
 ---------------------------------------------------------------------
 Rotational constants (GHZ):           0.2614151           0.1520412           0.1328966
 General basis read from cards:  (5D, 7F)
 ======================================================================================================
                                       Pseudopotential Parameters
 ======================================================================================================
  Center     Atomic      Valence      Angular      Power
  Number     Number     Electrons     Momentum     of R      Exponent        Coefficient   SO-Coeffient
 ======================================================================================================
    1          7
                                   No pseudopotential on this center.
    2          6
                                   No pseudopotential on this center.
    3          6
                                   No pseudopotential on this center.
    4          6
                                   No pseudopotential on this center.
    5          6
                                   No pseudopotential on this center.
    6          6
                                   No pseudopotential on this center.
    7          6
                                   No pseudopotential on this center.
    8          1
                                   No pseudopotential on this center.
    9          1
                                   No pseudopotential on this center.
   10          1
                                   No pseudopotential on this center.
   11          6
                                   No pseudopotential on this center.
   12          7
                                   No pseudopotential on this center.
   13          1
                                   No pseudopotential on this center.
   14          1
                                   No pseudopotential on this center.
   15          1
                                   No pseudopotential on this center.
   16         15
                                   No pseudopotential on this center.
   17          1
                                   No pseudopotential on this center.
   18         44           16
                                      G and up 
                                                     2        1.0000000        0.00000000    0.00000000
                                      S - G
                                                     2       11.1052690      209.82297100    0.00000000
                                                     2        5.4147450       30.65472600    0.00000000
                                      P - G
                                                     2        9.7712710      146.33618200    0.00000000
                                                     2        5.0739910       24.12787700    0.00000000
                                      D - G
                                                     2        7.6714230       67.51589700    0.00000000
                                                     2        4.1365650        9.87010400    0.00000000
                                      F - G
                                                     2       11.3600000      -28.34061600    0.00000000
                                                     2        5.6800000       -4.94462900    0.00000000
   19          6
                                   No pseudopotential on this center.
   20          6
                                   No pseudopotential on this center.
   21          6
                                   No pseudopotential on this center.
   22          6
                                   No pseudopotential on this center.
   23          6
                                   No pseudopotential on this center.
   24          6
                                   No pseudopotential on this center.
   25          6
                                   No pseudopotential on this center.
   26          6
                                   No pseudopotential on this center.
   27          6
                                   No pseudopotential on this center.
   28          6
                                   No pseudopotential on this center.
   29          1
                                   No pseudopotential on this center.
   30          1
                                   No pseudopotential on this center.
   31          6
                                   No pseudopotential on this center.
   32          1
                                   No pseudopotential on this center.
   33          1
                                   No pseudopotential on this center.
   34          6
                                   No pseudopotential on this center.
   35          1
                                   No pseudopotential on this center.
   36          6
                                   No pseudopotential on this center.
   37          8
                                   No pseudopotential on this center.
   38          1
                                   No pseudopotential on this center.
   39          1
                                   No pseudopotential on this center.
   40          1
                                   No pseudopotential on this center.
   41          1
                                   No pseudopotential on this center.
   42          1
                                   No pseudopotential on this center.
   43          1
                                   No pseudopotential on this center.
   44          1
                                   No pseudopotential on this center.
   45          1
                                   No pseudopotential on this center.
   46          1
                                   No pseudopotential on this center.
   47          1
                                   No pseudopotential on this center.
   48          1
                                   No pseudopotential on this center.
   49          1
                                   No pseudopotential on this center.
   50          1
                                   No pseudopotential on this center.
   51          1
                                   No pseudopotential on this center.
   52          1
                                   No pseudopotential on this center.
   53          1
                                   No pseudopotential on this center.
   54          1
                                   No pseudopotential on this center.
   55          1
                                   No pseudopotential on this center.
   56          1
                                   No pseudopotential on this center.
   57          1
                                   No pseudopotential on this center.
   58          1
                                   No pseudopotential on this center.
   59          1
                                   No pseudopotential on this center.
   60          1
                                   No pseudopotential on this center.
   61          1
                                   No pseudopotential on this center.
   62          1
                                   No pseudopotential on this center.
   63          8
                                   No pseudopotential on this center.
 ======================================================================================================
 There are  1473 symmetry adapted cartesian basis functions of A   symmetry.
 There are  1308 symmetry adapted basis functions of A   symmetry.
  1308 basis functions,  2037 primitive gaussians,  1473 cartesian basis functions
   109 alpha electrons      109 beta electrons
       nuclear repulsion energy      3233.1091047345 Hartrees.
 NAtoms=   63 NActive=   63 NUniq=   63 SFac= 1.00D+00 NAtFMM=   60 NAOKFM=T Big=T
 Integral buffers will be    131072 words long.
 Raffenetti 2 integral format.
 Two-electron integral symmetry is turned on.
 Nuclear repulsion after empirical dispersion term =     3233.0128220450 Hartrees.
 ------------------------------------------------------------------------------
 Polarizable Continuum Model (PCM)
 =================================
 Model                : PCM.
 Atomic radii         : SMD-Coulomb.
 Polarization charges : Total charges.
 Charge compensation  : None.
 Solution method      : On-the-fly selection.
 Cavity type          : VdW (van der Waals Surface) (Alpha=1.000).
 Cavity algorithm     : GePol (No added spheres)
                        Default sphere list used, NSphG=   63.
                        Lebedev-Laikov grids with approx.  5.0 points / Ang**2.
                        Smoothing algorithm: York/Karplus (Gamma=1.0000).
                        Polarization charges: spherical gaussians, with
                                              point-specific exponents (IZeta= 3).
                        Self-potential: point-specific (ISelfS= 7).
                        Self-field    : sphere-specific E.n sum rule (ISelfD= 2).
 Solvent              : Water, Eps=  78.355300 Eps(inf)=   1.777849
 ------------------------------------------------------------------------------
 ------------------------------------------------------------------------------
 Atomic radii for non-electrostatic terms: SMD-CDS.
 ------------------------------------------------------------------------------
 Nuclear repulsion after PCM non-electrostatic terms =     3233.0308437292 Hartrees.
 One-electron integrals computed using PRISM.
   1 Symmetry operations used in ECPInt.
 ECPInt:  NShTT=  119316 NPrTT=  422118 LenC2=  102264 LenP2D=  237795.
 LDataN:  DoStor=T MaxTD1= 7 Len=  274
 Number of processors reduced to  11 by ecpmxn.
 NBasis=  1308 RedAO= T EigKep=  3.83D-05  NBF=  1308
 NBsUse=  1308 1.00D-06 EigRej= -1.00D+00 NBFU=  1308
 Defaulting to unpruned grid for atomic number  44.
 ExpMin= 1.60D-02 ExpMax= 3.12D+05 ExpMxC= 9.87D+02 IAcc=3 IRadAn=         5 AccDes= 0.00D+00
 Harris functional with IExCor= 1009 and IRadAn=       5 diagonalized for initial guess.
 HarFok:  IExCor= 1009 AccDes= 0.00D+00 IRadAn=         5 IDoV= 1 UseB2=F ITyADJ=14
 ICtDFT=  3500011 ScaDFX=  1.000000  1.000000  1.000000  1.000000
 Defaulting to unpruned grid for atomic number  44.
 FoFCou: FMM=F IPFlag=           0 FMFlag=      100000 FMFlg1=        2001
         NFxFlg=           0 DoJE=T BraDBF=F KetDBF=T FulRan=T
         wScrn=  0.000000 ICntrl=       500 IOpCl=  0 I1Cent=   200000004 NGrid=           0
         NMat0=    1 NMatS0=      1 NMatT0=    0 NMatD0=    1 NMtDS0=    0 NMtDT0=    0
 Petite list used in FoFCou.
 Requested convergence on RMS density matrix=1.00D-08 within 128 cycles.
 Requested convergence on MAX density matrix=1.00D-06.
 Requested convergence on             energy=1.00D-06.
 No special actions if energy rises.
 Defaulting to unpruned grid for atomic number  44.
 Defaulting to unpruned grid for atomic number  44.
 Defaulting to unpruned grid for atomic number  44.
 Defaulting to unpruned grid for atomic number  44.
 Defaulting to unpruned grid for atomic number  44.
 Defaulting to unpruned grid for atomic number  44.
 Defaulting to unpruned grid for atomic number  44.
 Defaulting to unpruned grid for atomic number  44.
 Defaulting to unpruned grid for atomic number  44.
 Defaulting to unpruned grid for atomic number  44.
 Defaulting to unpruned grid for atomic number  44.
 Defaulting to unpruned grid for atomic number  44.
 Defaulting to unpruned grid for atomic number  44.
 Defaulting to unpruned grid for atomic number  44.
 Defaulting to unpruned grid for atomic number  44.
 Defaulting to unpruned grid for atomic number  44.
 Defaulting to unpruned grid for atomic number  44.
 Defaulting to unpruned grid for atomic number  44.
 Defaulting to unpruned grid for atomic number  44.
 Defaulting to unpruned grid for atomic number  44.
 Inv3:  Mode=1 IEnd=    46570800.
 Iteration    1 A*A^-1 deviation from unit magnitude is 1.25D-14 for    591.
 Iteration    1 A*A^-1 deviation from orthogonality  is 4.00D-15 for   2559    355.
 Iteration    1 A^-1*A deviation from unit magnitude is 1.28D-14 for    591.
 Iteration    1 A^-1*A deviation from orthogonality  is 6.76D-14 for   3843   3512.
 EnCoef did     4 forward-backward iterations
 Error on total polarization charges =  0.08055
 SCF Done:  E(RPBE1PBE) =  -1479.80913296     A.U. after   17 cycles
            NFock= 17  Conv=0.23D-08     -V/T= 2.0494
 SMD-CDS (non-electrostatic) energy       (kcal/mol) =      11.31
 (included in total energy above)
 DoSCS=F DFT=T ScalE2(SS,OS)=  1.000000  1.000000
 Range of M.O.s used for correlation:     1  1308
 NBasis=  1308 NAE=   109 NBE=   109 NFC=     0 NFV=     0
 NROrb=   1308 NOA=   109 NOB=   109 NVA=  1199 NVB=  1199

 **** Warning!!: The largest alpha MO coefficient is  0.16712253D+02

 NEqPCM:  Using equilibrium solvation (IEInf=0, Eps=  78.3553, EpsInf=   1.7778)
          Differentiating once with respect to magnetic field using GIAOs.
          Electric field/nuclear overlap derivatives assumed to be zero.
 Defaulting to unpruned grid for atomic number  44.
   1 Symmetry operations used in ECPInt.
 ECPInt:  NShTT=  119316 NPrTT=  422118 LenC2=  119317 LenP2D=  422118.
 LDataN:  DoStor=T MaxTD1= 8 Len=  415
 Number of processors reduced to   7 by ecpmxn.
 FoFJK:  IHMeth= 1 ICntrl=    6127 DoSepK=F KAlg= 0 I1Cent=           0 FoldK=F
 IRaf=         1 NMat=       1 IRICut=       1 DoRegI=T DoRafI=F ISym2E= 0 IDoP0=0 IntGTp=1.
 Defaulting to unpruned grid for atomic number  44.
 Defaulting to unpruned grid for atomic number  44.
 Defaulting to unpruned grid for atomic number  44.
 Defaulting to unpruned grid for atomic number  44.
 Defaulting to unpruned grid for atomic number  44.
 Defaulting to unpruned grid for atomic number  44.
 Defaulting to unpruned grid for atomic number  44.
 Defaulting to unpruned grid for atomic number  44.
 Defaulting to unpruned grid for atomic number  44.
 Defaulting to unpruned grid for atomic number  44.
 Defaulting to unpruned grid for atomic number  44.
 Defaulting to unpruned grid for atomic number  44.
 Defaulting to unpruned grid for atomic number  44.
 Defaulting to unpruned grid for atomic number  44.
 Defaulting to unpruned grid for atomic number  44.
 Defaulting to unpruned grid for atomic number  44.
 Defaulting to unpruned grid for atomic number  44.
 Defaulting to unpruned grid for atomic number  44.
 Defaulting to unpruned grid for atomic number  44.
 Defaulting to unpruned grid for atomic number  44.
          There are     3 degrees of freedom in the 1st order CPHF.  IDoFFX=0 NUNeed=     3.
      3 vectors produced by pass  0 Test12= 4.36D-12 3.33D-08 XBig12= 8.35D+01 1.70D+00.
 AX will form     3 AO Fock derivatives at one time.
      3 vectors produced by pass  1 Test12= 4.36D-12 3.33D-08 XBig12= 4.33D-01 3.35D-01.
      3 vectors produced by pass  2 Test12= 4.36D-12 3.33D-08 XBig12= 8.84D-03 4.01D-02.
      3 vectors produced by pass  3 Test12= 4.36D-12 3.33D-08 XBig12= 6.77D-05 2.34D-03.
      3 vectors produced by pass  4 Test12= 4.36D-12 3.33D-08 XBig12= 5.55D-07 2.26D-04.
      3 vectors produced by pass  5 Test12= 4.36D-12 3.33D-08 XBig12= 5.27D-09 1.59D-05.
      3 vectors produced by pass  6 Test12= 4.36D-12 3.33D-08 XBig12= 5.86D-11 1.44D-06.
      3 vectors produced by pass  7 Test12= 4.36D-12 3.33D-08 XBig12= 3.54D-13 2.15D-07.
 InvSVY:  IOpt=1 It=  1 EMax= 3.55D-15
 Solved reduced A of dimension    24 with     3 vectors.
 Calculating GIAO nuclear magnetic shielding tensors.
 SCF GIAO Magnetic shielding tensor (ppm):
      1  N    Isotropic =   -38.5257   Anisotropy =   397.7058
   XX=  -114.2042   YX=    49.3221   ZX=   136.2639
   XY=    41.6012   YY=  -105.9135   ZY=   104.0276
   XZ=   173.2656   YZ=   114.7461   ZZ=   104.5406
   Eigenvalues:  -196.1790  -146.0096   226.6115
      2  C    Isotropic =    20.2100   Anisotropy =   175.3052
   XX=   -29.7164   YX=    -5.9874   ZX=    77.2921
   XY=     8.6293   YY=     7.9776   ZY=    49.4100
   XZ=    63.7655   YZ=    62.8383   ZZ=    82.3688
   Eigenvalues:   -71.9149    -4.5352   137.0801
      3  C    Isotropic =    19.6513   Anisotropy =   180.7917
   XX=   -48.6835   YX=    36.0223   ZX=    67.1610
   XY=    21.5178   YY=     8.7113   ZY=    38.0218
   XZ=    73.6895   YZ=    27.8207   ZZ=    98.9261
   Eigenvalues:   -79.5091    -1.7161   140.1791
      4  C    Isotropic =    62.7841   Anisotropy =   166.2233
   XX=    -4.2492   YX=    48.2063   ZX=    56.0528
   XY=    58.2373   YY=    53.8942   ZY=    21.6631
   XZ=    50.5727   YZ=    35.0307   ZZ=   138.7072
   Eigenvalues:   -41.9866    56.7392   173.5996
      5  C    Isotropic =    43.5923   Anisotropy =   205.4331
   XX=    36.0284   YX=    35.1906   ZX=    46.9400
   XY=    34.8120   YY=   -39.3790   ZY=    69.2083
   XZ=    47.4193   YZ=    69.9107   ZZ=   134.1276
   Eigenvalues:   -67.2054    17.4348   180.5477
      6  C    Isotropic =    61.6877   Anisotropy =   167.1606
   XX=    30.9803   YX=   -18.0678   ZX=    66.5153
   XY=   -25.7485   YY=    32.1066   ZY=    62.2075
   XZ=    74.6097   YZ=    53.7650   ZZ=   121.9762
   Eigenvalues:   -41.2931    53.2281   173.1281
      7  C    Isotropic =   127.5451   Anisotropy =    55.5805
   XX=   113.3828   YX=    13.9580   ZX=    -9.7825
   XY=    14.0189   YY=   159.8857   ZY=    -3.8328
   XZ=   -16.8468   YZ=    -2.4888   ZZ=   109.3667
   Eigenvalues:    97.1152   120.9213   164.5988
      8  H    Isotropic =    23.6986   Anisotropy =     7.3052
   XX=    22.8862   YX=     0.3404   ZX=    -0.9124
   XY=     0.8142   YY=    27.3001   ZY=    -2.9646
   XZ=    -1.2684   YZ=    -2.8186   ZZ=    20.9097
   Eigenvalues:    19.5903    22.9368    28.5688
      9  H    Isotropic =    23.2195   Anisotropy =     4.4351
   XX=    25.4876   YX=    -0.4800   ZX=    -1.9406
   XY=    -0.3785   YY=    23.3763   ZY=    -1.5108
   XZ=    -1.9013   YZ=    -1.3630   ZZ=    20.7945
   Eigenvalues:    19.5259    23.9563    26.1762
     10  H    Isotropic =    23.4378   Anisotropy =     8.3298
   XX=    24.0243   YX=    -3.5087   ZX=    -0.2833
   XY=    -3.4496   YY=    26.1975   ZY=    -2.0980
   XZ=    -0.2733   YZ=    -1.8508   ZZ=    20.0916
   Eigenvalues:    19.0707    22.2517    28.9910
     11  C    Isotropic =   143.8788   Anisotropy =    36.2237
   XX=   156.6740   YX=   -18.6356   ZX=    -7.5001
   XY=    -9.8330   YY=   147.9981   ZY=   -15.9050
   XZ=   -26.2607   YZ=   -14.6084   ZZ=   126.9643
   Eigenvalues:   109.0812   154.5273   168.0279
     12  N    Isotropic =   189.0706   Anisotropy =    77.5371
   XX=   183.8144   YX=    12.6464   ZX=    -8.0811
   XY=    16.6072   YY=   231.2345   ZY=   -10.5666
   XZ=    -5.1408   YZ=   -31.0641   ZZ=   152.1630
   Eigenvalues:   146.7713   179.6785   240.7620
     13  H    Isotropic =    27.4539   Anisotropy =     7.8948
   XX=    28.8907   YX=    -2.4065   ZX=    -0.0624
   XY=    -2.6941   YY=    30.7448   ZY=     0.5408
   XZ=    -1.7087   YZ=     1.5451   ZZ=    22.7262
   Eigenvalues:    22.5370    27.1076    32.7171
     14  H    Isotropic =    26.0488   Anisotropy =     4.9759
   XX=    27.3004   YX=    -2.6964   ZX=     2.2984
   XY=    -1.5667   YY=    24.7094   ZY=     1.0530
   XZ=     1.3018   YZ=    -1.3785   ZZ=    26.1367
   Eigenvalues:    23.2762    25.5042    29.3661
     15  H    Isotropic =    27.6141   Anisotropy =     4.8589
   XX=    25.4747   YX=    -2.2570   ZX=    -0.8250
   XY=    -2.8874   YY=    26.9675   ZY=    -0.0218
   XZ=    -1.8617   YZ=    -0.1448   ZZ=    30.4002
   Eigenvalues:    23.3608    28.6282    30.8534
     16  P    Isotropic =   181.8956   Anisotropy =   262.2264
   XX=   321.5093   YX=    45.4686   ZX=   -44.0166
   XY=    93.0117   YY=   148.3439   ZY=    -9.8032
   XZ=   -62.2942   YZ=   -21.7818   ZZ=    75.8336
   Eigenvalues:    64.7945   124.1790   356.7132
     17  H    Isotropic =    27.3378   Anisotropy =     7.9760
   XX=    28.5220   YX=     1.5005   ZX=    -1.4111
   XY=     1.3876   YY=    29.8003   ZY=    -3.3896
   XZ=    -1.1989   YZ=    -4.6650   ZZ=    23.6911
   Eigenvalues:    21.6485    27.7097    32.6551
     18  Ru   Isotropic =  -444.8757   Anisotropy =   168.0958
   XX=  -369.9846   YX=   -42.9117   ZX=   -56.1788
   XY=   -37.9584   YY=  -474.7956   ZY=     2.2885
   XZ=   -74.6774   YZ=   -16.5089   ZZ=  -489.8468
   Eigenvalues:  -529.3822  -472.4330  -332.8118
     19  C    Isotropic =   141.0333   Anisotropy =    40.8284
   XX=   153.2347   YX=    -3.9280   ZX=    15.1613
   XY=    -7.2135   YY=   113.1098   ZY=     6.9533
   XZ=    10.7083   YZ=    11.3366   ZZ=   156.7553
   Eigenvalues:   109.6979   145.1497   168.2523
     20  C    Isotropic =   144.9894   Anisotropy =    28.8886
   XX=   152.6998   YX=    -9.0790   ZX=    -7.4639
   XY=   -10.3224   YY=   137.2636   ZY=    12.7686
   XZ=    -4.6533   YZ=    11.8448   ZZ=   145.0048
   Eigenvalues:   127.3818   143.3379   164.2485
     21  C    Isotropic =   141.8041   Anisotropy =    50.4211
   XX=   121.6236   YX=     7.6284   ZX=   -15.5233
   XY=     9.5379   YY=   156.8301   ZY=   -16.0158
   XZ=   -14.0628   YZ=   -20.2509   ZZ=   146.9587
   Eigenvalues:   114.8140   135.1801   175.4182
     22  C    Isotropic =   142.4508   Anisotropy =    28.6017
   XX=   142.7790   YX=     4.5848   ZX=     6.5468
   XY=     3.8574   YY=   136.7810   ZY=    12.5961
   XZ=    12.3461   YZ=    12.3530   ZZ=   147.7926
   Eigenvalues:   128.4028   137.4311   161.5186
     23  C    Isotropic =   151.9413   Anisotropy =    36.6074
   XX=   157.3601   YX=     9.3435   ZX=     7.7956
   XY=    14.1733   YY=   146.5252   ZY=    13.8350
   XZ=     9.1434   YZ=    18.8005   ZZ=   151.9385
   Eigenvalues:   132.0635   147.4140   176.3462
     24  C    Isotropic =   159.4102   Anisotropy =    30.7484
   XX=   153.3878   YX=    -7.9307   ZX=    12.2741
   XY=    -9.6022   YY=   158.7972   ZY=   -11.9720
   XZ=     7.3414   YZ=    -8.8538   ZZ=   166.0456
   Eigenvalues:   146.5816   151.7398   179.9091
     25  C    Isotropic =   161.6145   Anisotropy =    36.5758
   XX=   166.7849   YX=    14.9878   ZX=   -13.6231
   XY=    11.4277   YY=   160.8968   ZY=    -6.3448
   XZ=   -13.8385   YZ=    -9.6948   ZZ=   157.1616
   Eigenvalues:   147.2076   151.6374   185.9983
     26  C    Isotropic =   156.6416   Anisotropy =    34.6214
   XX=   160.7254   YX=   -16.4170   ZX=    -0.3001
   XY=   -19.0304   YY=   161.5519   ZY=     7.9562
   XZ=     0.5025   YZ=     6.7163   ZZ=   147.6475
   Eigenvalues:   139.6925   150.5097   179.7225
     27  C    Isotropic =   158.6995   Anisotropy =    32.6493
   XX=   175.4859   YX=     5.9844   ZX=   -12.7953
   XY=    10.4592   YY=   149.2905   ZY=     0.5340
   XZ=    -6.1922   YZ=     2.9317   ZZ=   151.3220
   Eigenvalues:   143.5999   152.0329   180.4657
     28  C    Isotropic =   158.5847   Anisotropy =    38.8511
   XX=   145.4627   YX=     1.8332   ZX=     4.6451
   XY=     0.8653   YY=   159.2855   ZY=   -16.3147
   XZ=     3.7200   YZ=   -20.1839   ZZ=   171.0059
   Eigenvalues:   142.0711   149.1975   184.4854
     29  H    Isotropic =    40.4922   Anisotropy =    17.8629
   XX=    47.3738   YX=     5.9527   ZX=     0.3410
   XY=     9.2233   YY=    25.7096   ZY=     7.5924
   XZ=    -1.5589   YZ=     9.7305   ZZ=    48.3931
   Eigenvalues:    20.7262    48.3495    52.4008
     30  H    Isotropic =    28.5866   Anisotropy =     6.2611
   XX=    32.0194   YX=     2.9812   ZX=    -0.1524
   XY=     1.9869   YY=    24.2722   ZY=    -1.4107
   XZ=     0.8025   YZ=     0.6673   ZZ=    29.4681
   Eigenvalues:    23.5104    29.4887    32.7606
     31  C    Isotropic =   183.6391   Anisotropy =    11.7267
   XX=   191.2743   YX=    -1.9880   ZX=    -1.4681
   XY=    -1.1566   YY=   177.8993   ZY=     2.5985
   XZ=     1.8088   YZ=     1.1196   ZZ=   181.7436
   Eigenvalues:   176.9850   182.4754   191.4569
     32  H    Isotropic =    27.8963   Anisotropy =     5.1560
   XX=    28.6407   YX=    -1.6930   ZX=     0.7476
   XY=    -2.1182   YY=    27.6096   ZY=     2.3225
   XZ=     0.8360   YZ=     4.6972   ZZ=    27.4385
   Eigenvalues:    23.3247    29.0305    31.3336
     33  H    Isotropic =    28.2539   Anisotropy =     4.7681
   XX=    28.2028   YX=     3.3185   ZX=     1.1104
   XY=     2.9480   YY=    25.9501   ZY=    -0.6709
   XZ=     1.8215   YZ=    -0.9287   ZZ=    30.6089
   Eigenvalues:    23.4311    29.8980    31.4327
     34  C    Isotropic =   170.5833   Anisotropy =    26.9583
   XX=   171.7380   YX=    -0.5963   ZX=   -10.1052
   XY=    -2.4890   YY=   188.4069   ZY=    -4.0182
   XZ=    -8.5909   YZ=     3.2543   ZZ=   151.6051
   Eigenvalues:   147.9131   175.2813   188.5555
     35  H    Isotropic =    28.7881   Anisotropy =     7.9654
   XX=    31.6936   YX=    -0.6679   ZX=    -3.2228
   XY=    -0.3085   YY=    26.9954   ZY=    -1.2803
   XZ=    -4.6238   YZ=    -1.1077   ZZ=    27.6753
   Eigenvalues:    24.5988    27.6671    34.0984
     36  C    Isotropic =   -46.3556   Anisotropy =   458.6862
   XX=  -180.8937   YX=    23.9451   ZX=    53.8854
   XY=    27.4519   YY=  -126.6606   ZY=   164.4470
   XZ=    75.2403   YZ=   182.0643   ZZ=   168.4874
   Eigenvalues:  -207.5416  -190.9604   259.4352
     37  O    Isotropic =   318.4172   Anisotropy =   157.6221
   XX=   406.3835   YX=    45.4281   ZX=   -30.5559
   XY=    31.6596   YY=   326.6894   ZY=   -12.9421
   XZ=    -3.9311   YZ=     4.8004   ZZ=   222.1788
   Eigenvalues:   220.5760   311.1770   423.4986
     38  H    Isotropic =    31.3387   Anisotropy =    15.8457
   XX=    25.4285   YX=    -1.7382   ZX=     1.3201
   XY=    -4.0167   YY=    34.1190   ZY=    -7.8069
   XZ=     0.8053   YZ=    -6.4678   ZZ=    34.4685
   Eigenvalues:    24.3584    27.7551    41.9024
     39  H    Isotropic =    29.8033   Anisotropy =     8.8248
   XX=    35.1640   YX=    -0.1109   ZX=    -1.4870
   XY=    -2.4950   YY=    29.5896   ZY=    -0.0117
   XZ=    -2.1685   YZ=    -1.8377   ZZ=    24.6561
   Eigenvalues:    24.1098    29.6134    35.6865
     40  H    Isotropic =    29.7676   Anisotropy =     8.0843
   XX=    29.3266   YX=     3.2996   ZX=     3.3411
   XY=     3.2905   YY=    31.6480   ZY=     1.3368
   XZ=     2.9893   YZ=     0.8882   ZZ=    28.3282
   Eigenvalues:    25.2758    28.8698    35.1572
     41  H    Isotropic =    30.1105   Anisotropy =    12.2019
   XX=    27.4735   YX=     2.9137   ZX=    -2.5706
   XY=     2.6744   YY=    33.0027   ZY=    -5.5935
   XZ=    -2.3352   YZ=    -5.0300   ZZ=    29.8553
   Eigenvalues:    25.7252    26.3612    38.2451
     42  H    Isotropic =    30.7766   Anisotropy =    12.1197
   XX=    31.6253   YX=     0.4685   ZX=     5.4690
   XY=     0.3713   YY=    26.2678   ZY=     0.6376
   XZ=     5.6970   YZ=     1.0566   ZZ=    34.4366
   Eigenvalues:    26.1674    27.3060    38.8564
     43  H    Isotropic =    30.0497   Anisotropy =     9.1677
   XX=    31.8902   YX=    -4.1945   ZX=     1.2749
   XY=    -2.8645   YY=    33.2449   ZY=     1.5637
   XZ=     2.7392   YZ=     1.6897   ZZ=    25.0139
   Eigenvalues:    23.7390    30.2486    36.1615
     44  H    Isotropic =    30.1842   Anisotropy =     9.3827
   XX=    34.7907   YX=     3.6663   ZX=    -1.0958
   XY=     2.7500   YY=    28.0497   ZY=    -3.4894
   XZ=     0.0435   YZ=    -3.0353   ZZ=    27.7121
   Eigenvalues:    24.2618    29.8514    36.4393
     45  H    Isotropic =    30.4363   Anisotropy =     9.9373
   XX=    29.5266   YX=    -1.7671   ZX=    -2.2294
   XY=    -2.2323   YY=    30.7437   ZY=     4.4755
   XZ=    -2.9123   YZ=     5.0731   ZZ=    31.0386
   Eigenvalues:    26.0618    28.1859    37.0612
     46  H    Isotropic =    29.8193   Anisotropy =     6.1261
   XX=    30.5700   YX=    -1.4462   ZX=     2.4984
   XY=    -0.8535   YY=    26.6226   ZY=     1.5195
   XZ=     2.1376   YZ=     0.9278   ZZ=    32.2653
   Eigenvalues:    25.7609    29.7936    33.9034
     47  H    Isotropic =    29.8567   Anisotropy =     6.6605
   XX=    32.3897   YX=     2.2109   ZX=    -2.5331
   XY=     2.7209   YY=    31.0881   ZY=     1.2503
   XZ=    -1.0264   YZ=     2.6109   ZZ=    26.0924
   Eigenvalues:    24.5969    30.6762    34.2971
     48  H    Isotropic =    30.2760   Anisotropy =    10.6226
   XX=    30.9852   YX=    -5.3407   ZX=    -0.6449
   XY=    -5.5723   YY=    32.3881   ZY=     1.5684
   XZ=    -0.4015   YZ=     0.9619   ZZ=    27.4548
   Eigenvalues:    26.0313    27.4391    37.3578
     49  H    Isotropic =    29.7954   Anisotropy =     6.3078
   XX=    28.8458   YX=    -1.1602   ZX=    -1.4195
   XY=    -0.1779   YY=    31.3451   ZY=    -3.5181
   XZ=    -2.3530   YZ=    -3.4739   ZZ=    29.1952
   Eigenvalues:    25.5027    29.8829    34.0005
     50  H    Isotropic =    29.5275   Anisotropy =     7.1019
   XX=    30.0376   YX=    -0.9301   ZX=     3.9822
   XY=    -2.2158   YY=    28.3232   ZY=     1.4533
   XZ=     4.2507   YZ=     2.4036   ZZ=    30.2216
   Eigenvalues:    24.4358    29.8846    34.2621
     51  H    Isotropic =    30.3203   Anisotropy =    11.2642
   XX=    33.6096   YX=    -2.1145   ZX=    -5.1769
   XY=    -1.3866   YY=    27.8685   ZY=     1.1479
   XZ=    -5.5615   YZ=     1.8809   ZZ=    29.4827
   Eigenvalues:    25.7542    27.3769    37.8297
     52  H    Isotropic =    29.2058   Anisotropy =     6.9432
   XX=    30.2259   YX=     4.0121   ZX=    -0.3010
   XY=     3.5693   YY=    28.6405   ZY=     4.0395
   XZ=    -1.7249   YZ=     2.9126   ZZ=    28.7510
   Eigenvalues:    23.3996    30.3832    33.8346
     53  H    Isotropic =    29.9359   Anisotropy =     7.4844
   XX=    28.9559   YX=    -0.3959   ZX=    -2.8746
   XY=    -1.4929   YY=    29.1771   ZY=    -3.7505
   XZ=    -1.8864   YZ=    -4.1820   ZZ=    31.6749
   Eigenvalues:    25.0126    29.8697    34.9256
     54  H    Isotropic =    29.4760   Anisotropy =     7.6887
   XX=    33.9960   YX=    -2.5917   ZX=    -0.8089
   XY=    -0.6505   YY=    27.9751   ZY=     2.7121
   XZ=    -0.2347   YZ=     2.8897   ZZ=    26.4570
   Eigenvalues:    24.2790    29.5472    34.6018
     55  H    Isotropic =    30.4298   Anisotropy =    10.4595
   XX=    31.8760   YX=     3.5568   ZX=     3.0045
   XY=     3.7263   YY=    29.3499   ZY=     3.6947
   XZ=     3.3409   YZ=     3.2951   ZZ=    30.0637
   Eigenvalues:    26.0658    27.8208    37.4029
     56  H    Isotropic =    29.5677   Anisotropy =     7.0901
   XX=    29.5714   YX=     3.9191   ZX=    -1.9442
   XY=     3.2866   YY=    29.5399   ZY=    -2.5708
   XZ=     0.0917   YZ=    -2.0395   ZZ=    29.5920
   Eigenvalues:    25.6564    28.7523    34.2945
     57  H    Isotropic =    29.6064   Anisotropy =     6.9178
   XX=    27.5222   YX=    -4.0760   ZX=     0.0661
   XY=    -4.5379   YY=    31.2191   ZY=     0.1728
   XZ=     1.4077   YZ=    -1.1526   ZZ=    30.0778
   Eigenvalues:    24.6615    29.9394    34.2182
     58  H    Isotropic =    29.1621   Anisotropy =     8.8306
   XX=    34.3336   YX=     1.8031   ZX=     0.1995
   XY=     3.0883   YY=    24.8250   ZY=    -2.4058
   XZ=    -0.5527   YZ=    -3.4449   ZZ=    28.3277
   Eigenvalues:    22.7976    29.6395    35.0491
     59  H    Isotropic =    30.6939   Anisotropy =    10.6284
   XX=    28.6316   YX=     0.3979   ZX=     3.3000
   XY=     0.5946   YY=    27.1461   ZY=     0.3161
   XZ=     3.8736   YZ=     1.0088   ZZ=    36.3039
   Eigenvalues:    26.9238    27.3783    37.7794
     60  H    Isotropic =    31.2308   Anisotropy =     9.7207
   XX=    28.7719   YX=    -0.0659   ZX=     1.0530
   XY=     1.1494   YY=    31.6399   ZY=     5.4683
   XZ=     2.3925   YZ=     4.2728   ZZ=    33.2806
   Eigenvalues:    27.1576    28.8235    37.7113
     61  H    Isotropic =    28.6080   Anisotropy =    10.6970
   XX=    34.4126   YX=     3.5365   ZX=    -1.4069
   XY=     3.3602   YY=    26.3136   ZY=     2.0682
   XZ=    -0.6874   YZ=    -0.8849   ZZ=    25.0977
   Eigenvalues:    24.1278    25.9568    35.7393
     62  H    Isotropic =    31.0731   Anisotropy =     6.9043
   XX=    28.9371   YX=    -2.5830   ZX=     2.7778
   XY=    -0.0026   YY=    33.4936   ZY=    -1.5926
   XZ=     5.6170   YZ=    -0.9907   ZZ=    30.7887
   Eigenvalues:    25.5594    31.9840    35.6760
     63  O    Isotropic =   -42.9758   Anisotropy =   589.5584
   XX=  -215.8484   YX=    30.6390   ZX=    68.1090
   XY=    27.2194   YY=  -151.8659   ZY=   211.6137
   XZ=    90.6858   YZ=   227.9895   ZZ=   238.7869
   Eigenvalues:  -252.1442  -226.8463   350.0631
 End of Minotr F.D. properties file   721 does not exist.
 End of Minotr F.D. properties file   722 does not exist.
 End of Minotr F.D. properties file   788 does not exist.

 **********************************************************************

            Population analysis using the SCF density.

 **********************************************************************

 Orbital symmetries:
       Occupied  (A) (A) (A) (A) (A) (A) (A) (A) (A) (A) (A) (A)
                 (A) (A) (A) (A) (A) (A) (A) (A) (A) (A) (A) (A)
                 (A) (A) (A) (A) (A) (A) (A) (A) (A) (A) (A) (A)
                 (A) (A) (A) (A) (A) (A) (A) (A) (A) (A) (A) (A)
                 (A) (A) (A) (A) (A) (A) (A) (A) (A) (A) (A) (A)
                 (A) (A) (A) (A) (A) (A) (A) (A) (A) (A) (A) (A)
                 (A) (A) (A) (A) (A) (A) (A) (A) (A) (A) (A) (A)
                 (A) (A) (A) (A) (A) (A) (A) (A) (A) (A) (A) (A)
                 (A) (A) (A) (A) (A) (A) (A) (A) (A) (A) (A) (A)
                 (A)
       Virtual   (A) (A) (A) (A) (A) (A) (A) (A) (A) (A) (A) (A)
                 (A) (A) (A) (A) (A) (A) (A) (A) (A) (A) (A) (A)
                 (A) (A) (A) (A) (A) (A) (A) (A) (A) (A) (A) (A)
                 (A) (A) (A) (A) (A) (A) (A) (A) (A) (A) (A) (A)
                 (A) (A) (A) (A) (A) (A) (A) (A) (A) (A) (A) (A)
                 (A) (A) (A) (A) (A) (A) (A) (A) (A) (A) (A) (A)
                 (A) (A) (A) (A) (A) (A) (A) (A) (A) (A) (A) (A)
                 (A) (A) (A) (A) (A) (A) (A) (A) (A) (A) (A) (A)
                 (A) (A) (A) (A) (A) (A) (A) (A) (A) (A) (A) (A)
                 (A) (A) (A) (A) (A) (A) (A) (A) (A) (A) (A) (A)
                 (A) (A) (A) (A) (A) (A) (A) (A) (A) (A) (A) (A)
                 (A) (A) (A) (A) (A) (A) (A) (A) (A) (A) (A) (A)
                 (A) (A) (A) (A) (A) (A) (A) (A) (A) (A) (A) (A)
                 (A) (A) (A) (A) (A) (A) (A) (A) (A) (A) (A) (A)
                 (A) (A) (A) (A) (A) (A) (A) (A) (A) (A) (A) (A)
                 (A) (A) (A) (A) (A) (A) (A) (A) (A) (A) (A) (A)
                 (A) (A) (A) (A) (A) (A) (A) (A) (A) (A) (A) (A)
                 (A) (A) (A) (A) (A) (A) (A) (A) (A) (A) (A) (A)
                 (A) (A) (A) (A) (A) (A) (A) (A) (A) (A) (A) (A)
                 (A) (A) (A) (A) (A) (A) (A) (A) (A) (A) (A) (A)
                 (A) (A) (A) (A) (A) (A) (A) (A) (A) (A) (A) (A)
                 (A) (A) (A) (A) (A) (A) (A) (A) (A) (A) (A) (A)
                 (A) (A) (A) (A) (A) (A) (A) (A) (A) (A) (A) (A)
                 (A) (A) (A) (A) (A) (A) (A) (A) (A) (A) (A) (A)
                 (A) (A) (A) (A) (A) (A) (A) (A) (A) (A) (A) (A)
                 (A) (A) (A) (A) (A) (A) (A) (A) (A) (A) (A) (A)
                 (A) (A) (A) (A) (A) (A) (A) (A) (A) (A) (A) (A)
                 (A) (A) (A) (A) (A) (A) (A) (A) (A) (A) (A) (A)
                 (A) (A) (A) (A) (A) (A) (A) (A) (A) (A) (A) (A)
                 (A) (A) (A) (A) (A) (A) (A) (A) (A) (A) (A) (A)
                 (A) (A) (A) (A) (A) (A) (A) (A) (A) (A) (A) (A)
                 (A) (A) (A) (A) (A) (A) (A) (A) (A) (A) (A) (A)
                 (A) (A) (A) (A) (A) (A) (A) (A) (A) (A) (A) (A)
                 (A) (A) (A) (A) (A) (A) (A) (A) (A) (A) (A) (A)
                 (A) (A) (A) (A) (A) (A) (A) (A) (A) (A) (A) (A)
                 (A) (A) (A) (A) (A) (A) (A) (A) (A) (A) (A) (A)
                 (A) (A) (A) (A) (A) (A) (A) (A) (A) (A) (A) (A)
                 (A) (A) (A) (A) (A) (A) (A) (A) (A) (A) (A) (A)
                 (A) (A) (A) (A) (A) (A) (A) (A) (A) (A) (A) (A)
                 (A) (A) (A) (A) (A) (A) (A) (A) (A) (A) (A) (A)
                 (A) (A) (A) (A) (A) (A) (A) (A) (A) (A) (A) (A)
                 (A) (A) (A) (A) (A) (A) (A) (A) (A) (A) (A) (A)
                 (A) (A) (A) (A) (A) (A) (A) (A) (A) (A) (A) (A)
                 (A) (A) (A) (A) (A) (A) (A) (A) (A) (A) (A) (A)
                 (A) (A) (A) (A) (A) (A) (A) (A) (A) (A) (A) (A)
                 (A) (A) (A) (A) (A) (A) (A) (A) (A) (A) (A) (A)
                 (A) (A) (A) (A) (A) (A) (A) (A) (A) (A) (A) (A)
                 (A) (A) (A) (A) (A) (A) (A) (A) (A) (A) (A) (A)
                 (A) (A) (A) (A) (A) (A) (A) (A) (A) (A) (A) (A)
                 (A) (A) (A) (A) (A) (A) (A) (A) (A) (A) (A) (A)
                 (A) (A) (A) (A) (A) (A) (A) (A) (A) (A) (A) (A)
                 (A) (A) (A) (A) (A) (A) (A) (A) (A) (A) (A) (A)
                 (A) (A) (A) (A) (A) (A) (A) (A) (A) (A) (A) (A)
                 (A) (A) (A) (A) (A) (A) (A) (A) (A) (A) (A) (A)
                 (A) (A) (A) (A) (A) (A) (A) (A) (A) (A) (A) (A)
[...]
 Alpha virt. eigenvalues --    1.60627   1.60815   1.61987   1.62157   1.62371
 Alpha virt. eigenvalues --    1.62805   1.63402   1.63612   1.64287   1.65115
 Alpha virt. eigenvalues --    1.65681   1.65775   1.65999   1.66232   1.66979
 Alpha virt. eigenvalues --    1.67740   1.68531   1.68816   1.69682   1.70259
 Alpha virt. eigenvalues --    1.70547   1.71438   1.72477   1.72702   1.73613
 Alpha virt. eigenvalues --    1.74278   1.74589   1.75288   1.75336   1.76481
 Alpha virt. eigenvalues --    1.77573   1.77930   1.79026   1.79462   1.80111
 Alpha virt. eigenvalues --    1.82750   1.83364   1.84367   1.85028   1.85864
 Alpha virt. eigenvalues --    1.87263   1.88427   1.88781   1.90564   1.91165
 Alpha virt. eigenvalues --    1.92341   1.93129   1.93732   1.94552   1.95293
 Alpha virt. eigenvalues --    1.95551   1.97282   1.99121   1.99623   2.01615
 Alpha virt. eigenvalues --    2.02100   2.03215   2.03903   2.04813   2.05861
 Alpha virt. eigenvalues --    2.06600   2.08558   2.09914   2.11039   2.12291
 Alpha virt. eigenvalues --    2.13477   2.14328   2.14813   2.17804   2.20127
 Alpha virt. eigenvalues --    2.21540   2.22228   2.24750   2.25762   2.26949
 Alpha virt. eigenvalues --    2.28992   2.30244   2.31579   2.32826   2.34042
 Alpha virt. eigenvalues --    2.34182   2.34863   2.35176   2.36361   2.37296
 Alpha virt. eigenvalues --    2.37686   2.38377   2.39106   2.39413   2.40502
 Alpha virt. eigenvalues --    2.41176   2.42759   2.42916   2.43538   2.44547
 Alpha virt. eigenvalues --    2.45019   2.45434   2.46155   2.46857   2.47028
 Alpha virt. eigenvalues --    2.47414   2.48134   2.48983   2.49902   2.50299
 Alpha virt. eigenvalues --    2.51596   2.51830   2.52466   2.52559   2.53602
 Alpha virt. eigenvalues --    2.54539   2.54601   2.55926   2.56336   2.57181
 Alpha virt. eigenvalues --    2.57838   2.58072   2.58369   2.59290   2.60072
 Alpha virt. eigenvalues --    2.60256   2.60448   2.60913   2.62186   2.63165
 Alpha virt. eigenvalues --    2.63631   2.64235   2.64464   2.65534   2.65881
 Alpha virt. eigenvalues --    2.66128   2.66645   2.66890   2.67448   2.67822
 Alpha virt. eigenvalues --    2.68744   2.68844   2.69252   2.69591   2.70128
 Alpha virt. eigenvalues --    2.70612   2.70982   2.71463   2.71815   2.72178
 Alpha virt. eigenvalues --    2.73054   2.73450   2.74597   2.74874   2.75827
 Alpha virt. eigenvalues --    2.76074   2.76300   2.76905   2.77144   2.77697
 Alpha virt. eigenvalues --    2.78193   2.78610   2.79035   2.79197   2.79714
 Alpha virt. eigenvalues --    2.80541   2.80614   2.81343   2.81424   2.82110
 Alpha virt. eigenvalues --    2.82138   2.82395   2.82938   2.83473   2.83863
 Alpha virt. eigenvalues --    2.84128   2.84607   2.85152   2.85526   2.86057
 Alpha virt. eigenvalues --    2.86697   2.87116   2.87382   2.87835   2.88420
 Alpha virt. eigenvalues --    2.88635   2.89089   2.89203   2.89982   2.90356
 Alpha virt. eigenvalues --    2.90559   2.91306   2.91728   2.92401   2.92715
 Alpha virt. eigenvalues --    2.93636   2.94390   2.94696   2.95509   2.95544
 Alpha virt. eigenvalues --    2.95745   2.96363   2.97068   2.97453   2.97799
 Alpha virt. eigenvalues --    2.98042   2.98249   2.99246   2.99538   3.00267
 Alpha virt. eigenvalues --    3.00662   3.01048   3.01253   3.01510   3.01860
 Alpha virt. eigenvalues --    3.02076   3.02912   3.03255   3.03565   3.04061
 Alpha virt. eigenvalues --    3.04263   3.04457   3.05058   3.05311   3.05458
 Alpha virt. eigenvalues --    3.06083   3.06601   3.07185   3.07283   3.07952
 Alpha virt. eigenvalues --    3.08230   3.08820   3.09045   3.09230   3.09542
 Alpha virt. eigenvalues --    3.10100   3.10219   3.10588   3.10827   3.11058
 Alpha virt. eigenvalues --    3.11306   3.11561   3.11971   3.12305   3.12613
 Alpha virt. eigenvalues --    3.12862   3.13279   3.13414   3.14207   3.14730
 Alpha virt. eigenvalues --    3.15227   3.15433   3.15632   3.16085   3.16132
 Alpha virt. eigenvalues --    3.16767   3.16959   3.17522   3.17827   3.18323
 Alpha virt. eigenvalues --    3.18658   3.18790   3.18963   3.19832   3.19887
 Alpha virt. eigenvalues --    3.20237   3.20763   3.21125   3.21471   3.21594
 Alpha virt. eigenvalues --    3.21981   3.22452   3.23023   3.23496   3.23957
 Alpha virt. eigenvalues --    3.24507   3.24625   3.25034   3.25383   3.26133
 Alpha virt. eigenvalues --    3.27015   3.27762   3.27925   3.28136   3.28456
 Alpha virt. eigenvalues --    3.28984   3.29187   3.29469   3.30361   3.30786
 Alpha virt. eigenvalues --    3.31226   3.31639   3.32046   3.32277   3.32632
 Alpha virt. eigenvalues --    3.33173   3.33439   3.33796   3.34460   3.34806
 Alpha virt. eigenvalues --    3.35105   3.35435   3.35950   3.36335   3.36616
 Alpha virt. eigenvalues --    3.36753   3.37222   3.37715   3.38188   3.38269
 Alpha virt. eigenvalues --    3.39762   3.40041   3.40437   3.40479   3.40894
 Alpha virt. eigenvalues --    3.41273   3.41596   3.41769   3.42145   3.42660
 Alpha virt. eigenvalues --    3.42907   3.43679   3.43757   3.44044   3.44345
 Alpha virt. eigenvalues --    3.45118   3.45374   3.45749   3.45880   3.46308
 Alpha virt. eigenvalues --    3.46739   3.46875   3.47786   3.48055   3.48244
 Alpha virt. eigenvalues --    3.48659   3.48767   3.49540   3.49758   3.49933
 Alpha virt. eigenvalues --    3.50560   3.50690   3.51165   3.51732   3.51974
 Alpha virt. eigenvalues --    3.52478   3.53008   3.53507   3.53678   3.54105
 Alpha virt. eigenvalues --    3.54193   3.55392   3.55504   3.55861   3.56506
 Alpha virt. eigenvalues --    3.57077   3.57341   3.57577   3.58060   3.58370
 Alpha virt. eigenvalues --    3.59000   3.59246   3.59538   3.60077   3.60746
 Alpha virt. eigenvalues --    3.60923   3.61383   3.62229   3.62468   3.62793
 Alpha virt. eigenvalues --    3.63159   3.63810   3.64284   3.65231   3.66053
 Alpha virt. eigenvalues --    3.66298   3.66668   3.67434   3.68284   3.68690
 Alpha virt. eigenvalues --    3.69123   3.69302   3.70178   3.70306   3.71118
 Alpha virt. eigenvalues --    3.71780   3.72341   3.72527   3.72732   3.73076
 Alpha virt. eigenvalues --    3.73706   3.74344   3.74363   3.74509   3.75118
 Alpha virt. eigenvalues --    3.75768   3.76459   3.76770   3.76881   3.77603
 Alpha virt. eigenvalues --    3.78373   3.78706   3.79529   3.79769   3.80138
 Alpha virt. eigenvalues --    3.80727   3.81758   3.82453   3.82748   3.83169
 Alpha virt. eigenvalues --    3.83569   3.83845   3.84997   3.86039   3.86368
 Alpha virt. eigenvalues --    3.86595   3.86928   3.87726   3.88403   3.88452
 Alpha virt. eigenvalues --    3.89089   3.89462   3.90177   3.90436   3.90939
 Alpha virt. eigenvalues --    3.91598   3.92356   3.92608   3.92928   3.93637
 Alpha virt. eigenvalues --    3.94649   3.95183   3.95258   3.95811   3.96514
 Alpha virt. eigenvalues --    3.96855   3.97347   3.97463   3.97902   3.98346
 Alpha virt. eigenvalues --    3.99295   3.99871   4.00275   4.01145   4.01265
 Alpha virt. eigenvalues --    4.01721   4.02252   4.02654   4.03159   4.03479
 Alpha virt. eigenvalues --    4.03705   4.04604   4.05126   4.05778   4.06194
 Alpha virt. eigenvalues --    4.07083   4.07410   4.07662   4.08048   4.08208
 Alpha virt. eigenvalues --    4.08688   4.09035   4.09571   4.09781   4.10415
 Alpha virt. eigenvalues --    4.10525   4.10899   4.11418   4.11532   4.12119
 Alpha virt. eigenvalues --    4.12346   4.12838   4.13310   4.13627   4.14182
 Alpha virt. eigenvalues --    4.14595   4.14658   4.14853   4.15209   4.15752
 Alpha virt. eigenvalues --    4.16251   4.17308   4.18095   4.18707   4.18858
 Alpha virt. eigenvalues --    4.19206   4.19583   4.19821   4.19921   4.20609
 Alpha virt. eigenvalues --    4.20832   4.21108   4.21540   4.22200   4.22525
 Alpha virt. eigenvalues --    4.23012   4.23533   4.23797   4.24338   4.24515
 Alpha virt. eigenvalues --    4.24721   4.25621   4.26027   4.26433   4.26880
 Alpha virt. eigenvalues --    4.27206   4.27539   4.27933   4.28379   4.28608
 Alpha virt. eigenvalues --    4.28892   4.29433   4.29905   4.30165   4.30572
 Alpha virt. eigenvalues --    4.31282   4.31923   4.32190   4.32486   4.32908
 Alpha virt. eigenvalues --    4.33037   4.33959   4.34226   4.34565   4.34934
 Alpha virt. eigenvalues --    4.35320   4.35784   4.36174   4.36273   4.36896
 Alpha virt. eigenvalues --    4.37321   4.37743   4.38385   4.38779   4.39097
 Alpha virt. eigenvalues --    4.39558   4.40536   4.40918   4.41178   4.41242
 Alpha virt. eigenvalues --    4.41844   4.42798   4.43304   4.43721   4.44551
 Alpha virt. eigenvalues --    4.45236   4.45821   4.46287   4.46618   4.47642
 Alpha virt. eigenvalues --    4.48035   4.48244   4.49086   4.49737   4.50279
 Alpha virt. eigenvalues --    4.51092   4.51521   4.52725   4.53536   4.54658
 Alpha virt. eigenvalues --    4.55239   4.55405   4.55860   4.56588   4.57403
 Alpha virt. eigenvalues --    4.58093   4.58399   4.59658   4.60158   4.60842
 Alpha virt. eigenvalues --    4.63129   4.63815   4.65095   4.66155   4.67115
 Alpha virt. eigenvalues --    4.68600   4.69529   4.70445   4.71692   4.72415
 Alpha virt. eigenvalues --    4.72746   4.73792   4.74123   4.74656   4.75684
 Alpha virt. eigenvalues --    4.76790   4.77324   4.78944   4.79690   4.80851
 Alpha virt. eigenvalues --    4.81421   4.81734   4.82427   4.82545   4.83150
 Alpha virt. eigenvalues --    4.83630   4.84317   4.84484   4.85056   4.85692
 Alpha virt. eigenvalues --    4.86164   4.87342   4.87562   4.87893   4.88150
 Alpha virt. eigenvalues --    4.88831   4.89298   4.89579   4.90143   4.90308
 Alpha virt. eigenvalues --    4.90633   4.91021   4.91625   4.92256   4.92638
 Alpha virt. eigenvalues --    4.93693   4.93992   4.94433   4.95806   4.96112
 Alpha virt. eigenvalues --    4.96562   4.96770   4.97403   4.98386   4.99327
 Alpha virt. eigenvalues --    5.00562   5.00698   5.01251   5.02457   5.04254
 Alpha virt. eigenvalues --    5.05630   5.05835   5.07388   5.08160   5.08946
 Alpha virt. eigenvalues --    5.09289   5.10121   5.10687   5.10961   5.12689
 Alpha virt. eigenvalues --    5.13810   5.14204   5.14695   5.15139   5.15493
 Alpha virt. eigenvalues --    5.16985   5.18157   5.18361   5.18623   5.19762
 Alpha virt. eigenvalues --    5.20085   5.20636   5.20949   5.21441   5.21519
 Alpha virt. eigenvalues --    5.23094   5.23624   5.24403   5.25286   5.25407
 Alpha virt. eigenvalues --    5.25702   5.26536   5.26837   5.27363   5.28197
 Alpha virt. eigenvalues --    5.29135   5.29487   5.30222   5.30954   5.31426
 Alpha virt. eigenvalues --    5.32299   5.33454   5.33619   5.34290   5.35028
 Alpha virt. eigenvalues --    5.35318   5.36346   5.36715   5.37069   5.37302
 Alpha virt. eigenvalues --    5.37598   5.38363   5.38443   5.39020   5.39842
 Alpha virt. eigenvalues --    5.40085   5.40494   5.41196   5.41323   5.42020
 Alpha virt. eigenvalues --    5.42756   5.43342   5.43538   5.43911   5.45123
 Alpha virt. eigenvalues --    5.46066   5.46494   5.47176   5.48581   5.49106
 Alpha virt. eigenvalues --    5.49713   5.50382   5.50998   5.51291   5.51841
 Alpha virt. eigenvalues --    5.52253   5.52901   5.53195   5.54270   5.54674
 Alpha virt. eigenvalues --    5.55736   5.56415   5.56755   5.57855   5.57936
 Alpha virt. eigenvalues --    5.59183   5.60479   5.61279   5.61600   5.62043
 Alpha virt. eigenvalues --    5.64973   5.66042   5.67314   5.69217   5.73992
 Alpha virt. eigenvalues --    5.77291   5.79934   5.86107   5.87872   5.92036
 Alpha virt. eigenvalues --    5.94049   5.96561   5.98523   5.98914   6.00603
 Alpha virt. eigenvalues --    6.01333   6.02145   6.02698   6.03111   6.03469
 Alpha virt. eigenvalues --    6.04444   6.05008   6.05541   6.06408   6.07086
 Alpha virt. eigenvalues --    6.07740   6.08549   6.09531   6.10555   6.10979
 Alpha virt. eigenvalues --    6.12802   6.15287   6.15971   6.17643   6.20663
 Alpha virt. eigenvalues --    6.23192   6.26949   6.28624   6.31610   6.34032
 Alpha virt. eigenvalues --    6.34553   6.38447   6.41528   6.52595   6.56966
 Alpha virt. eigenvalues --    6.61820   6.67550   6.75951   6.77418   6.79606
 Alpha virt. eigenvalues --    6.84796   6.86428   6.91500   7.06628   7.21575
 Alpha virt. eigenvalues --    7.34698   8.15064   9.73711   9.90498  10.07656
 Alpha virt. eigenvalues --   10.78512  12.16600  12.31713  12.37863  12.86431
 Alpha virt. eigenvalues --   12.93809  12.98999  13.22641  13.31307  13.49392
 Alpha virt. eigenvalues --   13.55062  13.58157  13.63485  13.71516  13.76724
 Alpha virt. eigenvalues --   13.83390  13.87381  14.00394  14.07395  15.07173
 Alpha virt. eigenvalues --   35.39341  35.58362  35.66221  46.25444
          Condensed to atoms (all electrons):
 Mulliken charges:
               1
     1  N   -0.172423
     2  C    0.113204
     3  C    0.048893
     4  C   -0.163983
     5  C   -0.131335
     6  C   -0.142685
     7  C   -0.115147
     8  H    0.159795
     9  H    0.161885
    10  H    0.162604
    11  C   -0.209576
    12  N   -0.192325
    13  H    0.121964
    14  H    0.167996
    15  H    0.161806
    16  P    0.139985
    17  H    0.149445
    18  Ru   0.537454
    19  C   -0.102545
    20  C    0.004719
    21  C   -0.113200
    22  C    0.012144
    23  C   -0.349608
    24  C   -0.343023
    25  C   -0.333431
    26  C   -0.378339
    27  C   -0.332267
    28  C   -0.351100
    29  H   -0.268401
    30  H    0.130487
    31  C   -0.326522
    32  H    0.122419
    33  H    0.126952
    34  C   -0.340042
    35  H    0.106507
    36  C   -0.128664
    37  O   -0.722768
    38  H    0.269807
    39  H    0.126482
    40  H    0.111157
    41  H    0.116703
    42  H    0.114536
    43  H    0.109546
    44  H    0.109304
    45  H    0.110580
    46  H    0.120171
    47  H    0.131940
    48  H    0.108763
    49  H    0.126758
    50  H    0.121761
    51  H    0.110030
    52  H    0.125876
    53  H    0.114303
    54  H    0.118007
    55  H    0.107748
    56  H    0.116475
    57  H    0.119991
    58  H    0.126897
    59  H    0.105558
    60  H    0.107303
    61  H    0.146757
    62  H    0.112844
    63  O   -0.300172
 Sum of Mulliken charges =  -0.00000
 Mulliken charges with hydrogens summed into heavy atoms:
               1
     1  N   -0.172423
     2  C    0.113204
     3  C    0.048893
     4  C   -0.004188
     5  C    0.030550
     6  C    0.019919
     7  C    0.174813
    11  C    0.101674
    12  N   -0.192325
    16  P    0.139985
    18  Ru   0.269053
    19  C    0.150362
    20  C    0.004719
    21  C    0.120259
    22  C    0.012144
    23  C    0.013083
    24  C    0.014259
    25  C    0.016778
    26  C   -0.011436
    27  C    0.009964
    28  C    0.001346
    31  C    0.006864
    34  C    0.014300
    36  C   -0.128664
    37  O   -0.452960
    63  O   -0.300172
 Electronic spatial extent (au):  <R**2>=           9618.5510
 Charge=              0.0000 electrons
 Dipole moment (field-independent basis, Debye):
    X=              1.0607    Y=              7.8826    Z=             -3.5825  Tot=              8.7232
 Quadrupole moment (field-independent basis, Debye-Ang):
   XX=           -149.3199   YY=           -175.1421   ZZ=           -193.3661
   XY=             -4.4082   XZ=             -4.4202   YZ=            -12.0827
 Traceless Quadrupole moment (field-independent basis, Debye-Ang):
   XX=             23.2895   YY=             -2.5327   ZZ=            -20.7568
   XY=             -4.4082   XZ=             -4.4202   YZ=            -12.0827
 Octapole moment (field-independent basis, Debye-Ang**2):
  XXX=            -50.7356  YYY=             63.0959  ZZZ=             12.4777  XYY=            -25.4953
  XXY=             -2.1307  XXZ=              1.6952  XZZ=             10.1952  YZZ=              0.7668
  YYZ=            -15.4319  XYZ=             10.1264
 Hexadecapole moment (field-independent basis, Debye-Ang**3):
 XXXX=          -7143.4771 YYYY=          -3208.0192 ZZZZ=          -2286.3357 XXXY=            -40.1955
 XXXZ=            -39.6685 YYYX=            -94.9009 YYYZ=           -153.6063 ZZZX=            -23.0588
 ZZZY=            -71.2761 XXYY=          -1699.0135 XXZZ=          -1586.3825 YYZZ=           -949.3455
 XXYZ=             16.2447 YYXZ=            -29.0614 ZZXY=             24.8856
 N-N= 3.233030843729D+03 E-N=-9.903306930230D+03  KE= 1.410150163952D+03
 1\1\GINC-NODE292\SP\RPBE1PBE\GenECP\C20H37N2O2P1Ru1\JS1212\12-Nov-2018
 \0\\# nmr genecp pbe1pbe EmpiricalDispersion=GD3BJ scrf=(SMD,solvent=w
 ater) geom=allcheck\\Title Card Required\\0,1\N,0,-0.7428211395,1.3650
 364245,-0.2818971154\C,0,-1.9220247724,1.8237849578,0.1643572425\C,0,0
 .1872114453,2.1963803226,-0.7799473562\C,0,-2.2285921124,3.1804440369,
 0.1058135865\C,0,-1.2778687333,4.0607855696,-0.4045796096\C,0,-0.05478
 41795,3.5690592211,-0.8487446782\C,0,-2.8197374265,0.7944058128,0.7932
 830599\H,0,-3.1952658179,3.5370416364,0.4636281364\H,0,-1.4905077418,5
 .1303355095,-0.4570466287\H,0,0.7077484355,4.2378933546,-1.2495981908\
 C,0,1.468181625,1.5699179036,-1.2569392174\N,0,-2.8464060663,-0.467733
 8404,0.0484125288\H,0,-3.8297825589,1.2135606042,0.9532363487\H,0,-2.3
 689704699,0.5486365362,1.7697025401\H,0,1.3550636922,1.3214490481,-2.3
 26765972\P,0,1.7900115441,-0.0839948878,-0.4164146699\H,0,2.3071081501
 ,2.2769101986,-1.173376206\Ru,0,-0.3320933084,-0.8073352547,-0.1959104
 055\C,0,-3.4939697941,-0.326291363,-1.2644865281\C,0,3.0676232802,-0.8
 97739936,-1.574850612\C,0,-3.4137190149,-1.5253883435,0.8938283456\C,0
 ,2.6433497934,0.4190138489,1.2168302331\C,0,2.3212761503,-1.5144388148
 ,-2.7572443741\C,0,3.7674882505,-2.0342268286,-0.827289842\C,0,4.09331
 32734,0.0928747155,-2.1338742334\C,0,1.7475891052,1.4667281584,1.88948
 10297\C,0,4.0385972368,1.0163077869,1.0402287382\C,0,2.7069105895,-0.8
 014835738,2.1386206615\H,0,-0.0069672639,-2.3740642974,0.002614383\H,0
 ,-2.9566887309,0.4722431051,-1.7992465222\C,0,-4.987708034,-0.03090125
 5,-1.2522984244\H,0,-3.2996986197,-1.246106345,-1.8318347947\H,0,-2.78
 63736804,-1.5289476568,1.797722685\C,0,-3.3773570448,-2.8912987011,0.2
 409500166\H,0,-4.4473937415,-1.2663904649,1.2016017865\C,0,-0.55472415
 35,-1.1357091158,-1.9745948461\O,0,-0.5412330457,-0.6118269845,1.88754
 09833\H,0,-0.3309083971,-1.4638841706,2.2866926529\H,0,-2.3527959421,-
 3.114641421,-0.0972242632\H,0,-4.0586496557,-2.9736400363,-0.619667612
 7\H,0,-3.6776609637,-3.6560809538,0.972407618\H,0,-5.3450327616,0.0721
 478032,-2.2879114866\H,0,-5.2297988611,0.9064344197,-0.7284574373\H,0,
 -5.5668394073,-0.8406114645,-0.783205021\H,0,3.0623178704,-1.951886212
 5,-3.446884569\H,0,1.7383639437,-0.7757223124,-3.3255288851\H,0,1.6394
 325755,-2.310283436,-2.4327238696\H,0,4.3590435719,-2.6239703534,-1.54
 70609445\H,0,3.0355511868,-2.7101078921,-0.3592394017\H,0,4.45700274,-
 1.6723700252,-0.0529454934\H,0,4.8004808384,-0.4595193912,-2.77507934\
 H,0,4.679536671,0.6013606733,-1.3607026848\H,0,3.6190671968,0.85740022
 77,-2.7670763168\H,0,4.7776074752,0.2866160469,0.6823026855\H,0,4.3865
 915601,1.3746277208,2.0236412352\H,0,4.0448697193,1.8835308819,0.36184
 13791\H,0,3.3412486484,-1.6058076706,1.7456971132\H,0,1.6938371594,-1.
 1876202418,2.3050627732\H,0,3.124004401,-0.4885766601,3.1107557457\H,0
 ,2.1853004171,1.7060632992,2.8735975022\H,0,0.737301857,1.0592648377,2
 .0489923304\H,0,1.7010372415,2.4074775882,1.3200010125\O,0,-0.82764420
 62,-1.3853023449,-3.0824268007\\Version=ES64L-G16RevA.03\State=1-A\HF=
 -1479.809133\RMSD=2.280e-09\Dipole=0.4267951,3.3398189,-0.6648142\Quad
 rupole=17.0774634,1.4687444,-18.5462078,-2.6584177,-4.8097232,-4.89028
 42\PG=C01 [X(C20H37N2O2P1Ru1)]\\@


  THE LARGE PRINT GIVETH,
  AND THE SMALL PRINT TAKETH AWAY.

                     -- TOM WAITS
 Job cpu time:       0 days 23 hours 57 minutes 37.9 seconds.
 Elapsed time:       0 days  1 hours 17 minutes 15.7 seconds.
 File lengths (MBytes):  RWF=   1223 Int=      0 D2E=      0 Chk=    154 Scr=      1
 Normal termination of Gaussian 16 at Mon Nov 12 23:58:42 2018.
