63
	Energy: -928594.2432451
N         -0.74635        1.30730       -0.32033
C         -1.93878        1.84197       -0.01643
C          0.18868        2.01274       -0.97776
C         -2.25389        3.14457       -0.39308
C         -1.29825        3.89510       -1.07340
C         -0.06176        3.32937       -1.36675
C         -2.84304        0.97446        0.81471
H         -3.23108        3.56209       -0.14724
H         -1.51749        4.92094       -1.37588
H          0.70480        3.89705       -1.89553
C          1.48478        1.30907       -1.27073
N         -2.84341       -0.42575        0.38117
H         -3.85953        1.40663        0.85274
H         -2.41290        0.96630        1.83054
H          1.39796        0.81902       -2.25631
P          1.79947       -0.10207       -0.06444
H          2.31636        2.02663       -1.33554
Ru        -0.32175       -0.78130        0.27359
C         -3.46183       -0.59919       -0.94190
C          3.10916       -1.14527       -0.97707
C         -3.42210       -1.26670        1.43622
C          2.61156        0.77486        1.42559
C          2.39457       -2.02743       -2.00009
C          3.80009       -2.06975        0.02702
C          4.14004       -0.29775       -1.72864
C          1.69299        1.93832        1.81948
C          4.00605        1.33256        1.14447
C          2.66301       -0.19905        2.60550
H          0.01026       -2.25575        0.83530
H         -2.91836        0.06098       -1.63552
C         -4.95759       -0.32754       -1.02895
H         -3.24790       -1.62263       -1.27730
H         -2.81556       -1.05375        2.32917
C         -3.36080       -2.74585        1.11743
H         -4.46441       -0.95652        1.65455
C         -0.50126       -1.51406       -1.38531
O         -0.57986       -0.11284        2.25077
H         -0.37245       -0.84709        2.84019
H         -2.32717       -3.02846        0.86111
H         -4.02163       -3.03305        0.28531
H         -3.67211       -3.32484        1.99945
H         -5.29191       -0.47074       -2.06746
H         -5.21847        0.70230       -0.74089
H         -5.54132       -1.01426       -0.39748
H          3.15437       -2.60299       -2.55465
H          1.81938       -1.44712       -2.73550
H          1.71136       -2.73530       -1.51456
H          4.41226       -2.80230       -0.52475
H          3.06264       -2.62841        0.62341
H          4.46906       -1.53042        0.71081
H          4.86572       -0.97439       -2.21023
H          4.70470        0.38269       -1.08198
H          3.67478        0.29404       -2.53093
H          4.75838        0.54920        0.98004
H          4.32884        1.91247        2.02544
H          4.02144        2.01981        0.28437
H          3.31205       -1.06440        2.42213
H          1.64926       -0.54891        2.83581
H          3.05547        0.33493        3.48741
H          2.10633        2.40374        2.73046
H          0.68234        1.56615        2.04803
H          1.65255        2.72159        1.04725
O         -0.74696       -2.01597       -2.41088
