 Entering Gaussian System, Link 0=g16
 Initial command:
 /cluster/chemistry/gaussian/g16/l1.exe "/scratch/js1212.769346/scratch/Gau-26791.inp" -scrdir="/scratch/js1212.769346/scratch/"
 Entering Link 1 = /cluster/chemistry/gaussian/g16/l1.exe PID=     26792.
  
 Copyright (c) 1988,1990,1992,1993,1995,1998,2003,2009,2016,
            Gaussian, Inc.  All Rights Reserved.
  
 This is part of the Gaussian(R) 16 program.  It is based on
 the Gaussian(R) 09 system (copyright 2009, Gaussian, Inc.),
 the Gaussian(R) 03 system (copyright 2003, Gaussian, Inc.),
 the Gaussian(R) 98 system (copyright 1998, Gaussian, Inc.),
 the Gaussian(R) 94 system (copyright 1995, Gaussian, Inc.),
 the Gaussian 92(TM) system (copyright 1992, Gaussian, Inc.),
 the Gaussian 90(TM) system (copyright 1990, Gaussian, Inc.),
 the Gaussian 88(TM) system (copyright 1988, Gaussian, Inc.),
 the Gaussian 86(TM) system (copyright 1986, Carnegie Mellon
 University), and the Gaussian 82(TM) system (copyright 1983,
 Carnegie Mellon University). Gaussian is a federally registered
 trademark of Gaussian, Inc.
  
 This software contains proprietary and confidential information,
 including trade secrets, belonging to Gaussian, Inc.
  
 This software is provided under written license and may be
 used, copied, transmitted, or stored only in accord with that
 written license.
  
 The following legend is applicable only to US Government
 contracts under FAR:
  
                    RESTRICTED RIGHTS LEGEND
  
 Use, reproduction and disclosure by the US Government is
 subject to restrictions as set forth in subparagraphs (a)
 and (c) of the Commercial Computer Software - Restricted
 Rights clause in FAR 52.227-19.
  
 Gaussian, Inc.
 340 Quinnipiac St., Bldg. 40, Wallingford CT 06492
  
  
 ---------------------------------------------------------------
 Warning -- This program may not be used in any manner that
 competes with the business of Gaussian, Inc. or will provide
 assistance to any competitor of Gaussian, Inc.  The licensee
 of this program is prohibited from giving any competitor of
 Gaussian, Inc. access to this program.  By using this program,
 the user acknowledges that Gaussian, Inc. is engaged in the
 business of creating and licensing software in the field of
 computational chemistry and represents and warrants to the
 licensee that it is not a competitor of Gaussian, Inc. and that
 it will not use this program in any manner prohibited above.
 ---------------------------------------------------------------
  

 Cite this work as:
 Gaussian 16, Revision A.03,
 M. J. Frisch, G. W. Trucks, H. B. Schlegel, G. E. Scuseria, 
 M. A. Robb, J. R. Cheeseman, G. Scalmani, V. Barone, 
 G. A. Petersson, H. Nakatsuji, X. Li, M. Caricato, A. V. Marenich, 
 J. Bloino, B. G. Janesko, R. Gomperts, B. Mennucci, H. P. Hratchian, 
 J. V. Ortiz, A. F. Izmaylov, J. L. Sonnenberg, D. Williams-Young, 
 F. Ding, F. Lipparini, F. Egidi, J. Goings, B. Peng, A. Petrone, 
 T. Henderson, D. Ranasinghe, V. G. Zakrzewski, J. Gao, N. Rega, 
 G. Zheng, W. Liang, M. Hada, M. Ehara, K. Toyota, R. Fukuda, 
 J. Hasegawa, M. Ishida, T. Nakajima, Y. Honda, O. Kitao, H. Nakai, 
 T. Vreven, K. Throssell, J. A. Montgomery, Jr., J. E. Peralta, 
 F. Ogliaro, M. J. Bearpark, J. J. Heyd, E. N. Brothers, K. N. Kudin, 
 V. N. Staroverov, T. A. Keith, R. Kobayashi, J. Normand, 
 K. Raghavachari, A. P. Rendell, J. C. Burant, S. S. Iyengar, 
 J. Tomasi, M. Cossi, J. M. Millam, M. Klene, C. Adamo, R. Cammi, 
 J. W. Ochterski, R. L. Martin, K. Morokuma, O. Farkas, 
 J. B. Foresman, and D. J. Fox, Gaussian, Inc., Wallingford CT, 2016.
 
 ******************************************
 Gaussian 16:  ES64L-G16RevA.03 25-Dec-2016
                20-Aug-2020 
 ******************************************
 %rwf=/scratch/js1212.769346/3-HCis-GP-D-0-TD-SMD-NStates25.rwf
 %nosave
 %nprocshared=16
 Will use up to   16 processors via shared memory.
 %mem=3000MB
 %oldchk=/data/js1212/200621_g16/3-HCis-GPOF-D-0.chk
 %chk=/scratch/js1212.769346/3-HCis-GP-D-0-TD-SMD-NStates25.chk
 Copying data from "/data/js1212/200621_g16/3-HCis-GPOF-D-0.chk" to current chk file "/scratch/js1212.769346/3-HCis-GP-D-0-TD-SMD-NStates25.chk"
 IOpt=  2 FromEx=T IUOpen= 4 IOptOp= 5 NList=   0 IFRang= 0 IUIn= 4 IUOut= 2.
 ----------------------------------------------------------------------
 # genecp pbe1pbe EmpiricalDispersion=GD3BJ scrf=(SMD,solvent=water) td
 =nstates=25 geom=allcheck
 ----------------------------------------------------------------------
 1/29=7,38=1,172=1/1;
 2/12=2,40=1/2;
 3/5=7,11=9,14=-4,16=1,17=8,25=1,30=1,70=32201,72=1,74=-13,124=41/1,2,3,8;
 4//1;
 5/5=2,38=5,53=1/2;
 8/6=1,10=1,108=25/1;
 9/41=25,42=1,70=2/14;
 6/7=2,8=2,9=2,10=2/1;
 99/5=1,9=1/99;
 Structure from the checkpoint file:  "/scratch/js1212.769346/3-HCis-GP-D-0-TD-SMD-NStates25.chk"
 -------------------
 Title Card Required
 -------------------
 Charge =  0 Multiplicity = 2
 Redundant internal coordinates found in file.  (old form).
 N,0,-0.6998958364,1.5644445757,-0.1061138388
 C,0,-1.9159571154,2.0573717929,0.1880522068
 C,0,0.2390194965,2.3296952179,-0.6974839796
 C,0,-2.226329357,3.391103219,-0.0435683318
 C,0,-1.2475919915,4.2184218503,-0.5909018467
 C,0,-0.0097304706,3.6825211027,-0.9288469767
 C,0,-2.8639961912,1.0554500624,0.7809691922
 H,0,-3.2199461582,3.7703650669,0.1974516284
 H,0,-1.4580277673,5.2735193547,-0.7743762735
 H,0,0.761617264,4.3005499891,-1.3896520666
 C,0,1.4988695589,1.6410408876,-1.1267471457
 N,0,-2.7032783463,-0.2744853742,0.1631801284
 H,0,-3.9026258073,1.4229292851,0.7089491451
 H,0,-2.6334294497,0.9485638118,1.8536986638
 H,0,1.3106284122,1.2523263661,-2.1416645673
 P,0,1.7939691764,0.0820791572,-0.1356781363
 H,0,2.3516815107,2.334212279,-1.161962348
 Ru,0,-0.3978407495,-0.4569584335,0.1582694623
 C,0,-3.1922390563,-0.2676004436,-1.2364258273
 C,0,2.8608570032,-1.0003012924,-1.27132958
 C,0,-3.3966827444,-1.2813505403,0.9973562487
 C,0,2.7920982199,0.6961351667,1.361744832
 C,0,1.9023457533,-1.6851076087,-2.2502362543
 C,0,3.5309028753,-2.0930309488,-0.4362783258
 C,0,3.9050898529,-0.2073033075,-2.0589234262
 C,0,2.0184085076,1.87208216,1.9694894
 C,0,4.1917468961,1.1859976013,0.9893005891
 C,0,2.9040594972,-0.4102166904,2.4142335222
 C,0,-0.4236999359,-0.5058414437,2.0147016436
 O,0,-0.5136365481,-0.5720747729,3.1745474139
 H,0,-2.6432463728,0.52986907,-1.7580263592
 C,0,-4.6906464143,-0.0901341327,-1.4229757117
 H,0,-2.8359660342,-1.195899154,-1.6981029053
 H,0,-2.9105354678,-1.253024173,1.9839367366
 C,0,-3.313231203,-2.6819627387,0.4283375594
 H,0,-4.4488549577,-0.9690530446,1.1524110214
 O,0,-0.2226221061,-2.513541489,0.0389686894
 H,0,0.0892291076,-2.8654306649,0.8815500223
 O,0,-0.5253059974,-0.4584224572,-1.819979225
 H,0,-2.2621228926,-2.9131661296,0.176755085
 H,0,-3.939963231,-2.8054596858,-0.4675709402
 H,0,-3.6744899697,-3.3967587228,1.183092798
 H,0,-4.9081023083,-0.0682878969,-2.5013122972
 H,0,-5.0716716765,0.8526005795,-0.9996457671
 H,0,-5.2721010067,-0.9172260099,-0.9895109797
 H,0,2.4957350085,-2.3496663917,-2.9016761479
 H,0,1.3694859576,-0.9638343787,-2.8867328769
 H,0,1.1447148283,-2.2735206346,-1.7085007852
 H,0,3.9886493537,-2.8255214835,-1.1212952632
 H,0,2.7899696457,-2.6305647607,0.1742497865
 H,0,4.3295956297,-1.7095501178,0.2144951857
 H,0,4.4472382468,-0.906054818,-2.7179241275
 H,0,4.6494480846,0.2918257347,-1.4256637201
 H,0,3.4399596191,0.5474525623,-2.7102551982
 H,0,4.8484905424,0.3674231975,0.6658604121
 H,0,4.6557457203,1.6467213871,1.877499526
 H,0,4.1738668973,1.9502730259,0.1974935446
 H,0,3.4877103031,-1.2687332178,2.0610676985
 H,0,1.920530159,-0.7731796712,2.734958509
 H,0,3.4139973274,-0.0032795689,3.3035148058
 H,0,2.5142289316,2.1746266114,2.9063823431
 H,0,0.9799110177,1.6064712789,2.2086470942
 H,0,2.0076367583,2.749649804,1.3060863353
 Recover connectivity data from disk.
                           ----------------------------
                           !    Current Parameters    !
                           ! (Angstroms and Degrees)  !
 --------------------------                            --------------------------
 ! Name  Definition              Value                                          !
 --------------------------------------------------------------------------------
 ! R1    R(1,2)                  1.3447                                         !
 ! R2    R(1,3)                  1.3479                                         !
 ! R3    R(1,18)                 2.0609                                         !
 ! R4    R(2,4)                  1.3888                                         !
 ! R5    R(2,7)                  1.5014                                         !
 ! R6    R(3,6)                  1.3948                                         !
 ! R7    R(3,11)                 1.4986                                         !
 ! R8    R(4,5)                  1.3935                                         !
 ! R9    R(4,8)                  1.0905                                         !
 ! R10   R(5,6)                  1.3906                                         !
 ! R11   R(5,9)                  1.0914                                         !
 ! R12   R(6,10)                 1.0905                                         !
 ! R13   R(7,12)                 1.4752                                         !
 ! R14   R(7,13)                 1.1041                                         !
 ! R15   R(7,14)                 1.1024                                         !
 ! R16   R(11,15)                1.103                                          !
 ! R17   R(11,16)                1.8707                                         !
 ! R18   R(11,17)                1.0996                                         !
 ! R19   R(12,19)                1.4826                                         !
 ! R20   R(12,21)                1.48                                           !
 ! R21   R(16,18)                2.2762                                         !
 ! R22   R(16,20)                1.8972                                         !
 ! R23   R(16,22)                1.9015                                         !
 ! R24   R(18,29)                1.8573                                         !
 ! R25   R(18,37)                2.0675                                         !
 ! R26   R(18,39)                1.9824                                         !
 ! R27   R(19,31)                1.0997                                         !
 ! R28   R(19,32)                1.5204                                         !
 ! R29   R(19,33)                1.0963                                         !
 ! R30   R(20,23)                1.5317                                         !
 ! R31   R(20,24)                1.5298                                         !
 ! R32   R(20,25)                1.5296                                         !
 ! R33   R(21,34)                1.1002                                         !
 ! R34   R(21,35)                1.5141                                         !
 ! R35   R(21,36)                1.1084                                         !
 ! R36   R(22,26)                1.5332                                         !
 ! R37   R(22,27)                1.529                                          !
 ! R38   R(22,28)                1.5311                                         !
 ! R39   R(23,46)                1.1037                                         !
 ! R40   R(23,47)                1.0997                                         !
 ! R41   R(23,48)                1.1017                                         !
 ! R42   R(24,49)                1.1024                                         !
 ! R43   R(24,50)                1.1003                                         !
 ! R44   R(24,51)                1.0993                                         !
 ! R45   R(25,52)                1.1029                                         !
 ! R46   R(25,53)                1.0974                                         !
 ! R47   R(25,54)                1.1001                                         !
 ! R48   R(26,61)                1.1023                                         !
 ! R49   R(26,62)                1.0983                                         !
 ! R50   R(26,63)                1.1002                                         !
 ! R51   R(27,55)                1.0982                                         !
 ! R52   R(27,56)                1.1029                                         !
 ! R53   R(27,57)                1.1006                                         !
 ! R54   R(28,58)                1.0966                                         !
 ! R55   R(28,59)                1.0963                                         !
 ! R56   R(28,60)                1.1029                                         !
 ! R57   R(29,30)                1.1652                                         !
 ! R58   R(32,43)                1.1003                                         !
 ! R59   R(32,44)                1.1014                                         !
 ! R60   R(32,45)                1.1                                            !
 ! R61   R(35,40)                1.1052                                         !
 ! R62   R(35,41)                1.1003                                         !
 ! R63   R(35,42)                1.1005                                         !
 ! R64   R(37,38)                0.9649                                         !
 ! A1    A(2,1,3)              121.1835                                         !
 ! A2    A(2,1,18)             117.6467                                         !
 ! A3    A(3,1,18)             120.7333                                         !
 ! A4    A(1,2,4)              121.1736                                         !
 ! A5    A(1,2,7)              114.3803                                         !
 ! A6    A(4,2,7)              124.4444                                         !
 ! A7    A(1,3,6)              119.9458                                         !
 ! A8    A(1,3,11)             116.7681                                         !
 ! A9    A(6,3,11)             123.2378                                         !
 ! A10   A(2,4,5)              118.5991                                         !
 ! A11   A(2,4,8)              120.0499                                         !
 ! A12   A(5,4,8)              121.3504                                         !
 ! A13   A(4,5,6)              119.4633                                         !
 ! A14   A(4,5,9)              120.3006                                         !
 ! A15   A(6,5,9)              120.2213                                         !
 ! A16   A(3,6,5)              119.4864                                         !
 ! A17   A(3,6,10)             119.5776                                         !
 ! A18   A(5,6,10)             120.9252                                         !
 ! A19   A(2,7,12)             111.5578                                         !
 ! A20   A(2,7,13)             110.2513                                         !
 ! A21   A(2,7,14)             108.4764                                         !
 ! A22   A(12,7,13)            112.0388                                         !
 ! A23   A(12,7,14)            107.2961                                         !
 ! A24   A(13,7,14)            107.0073                                         !
 ! A25   A(3,11,15)            106.3824                                         !
 ! A26   A(3,11,16)            111.3347                                         !
 ! A27   A(3,11,17)            111.8094                                         !
 ! A28   A(15,11,16)           102.7506                                         !
 ! A29   A(15,11,17)           108.9696                                         !
 ! A30   A(16,11,17)           114.8326                                         !
 ! A31   A(7,12,19)            110.8075                                         !
 ! A32   A(7,12,21)            109.0405                                         !
 ! A33   A(19,12,21)           112.3787                                         !
 ! A34   A(11,16,18)            96.5382                                         !
 ! A35   A(11,16,20)           104.301                                          !
 ! A36   A(11,16,22)           103.3494                                         !
 ! A37   A(18,16,20)           118.9267                                         !
 ! A38   A(18,16,22)           118.7014                                         !
 ! A39   A(20,16,22)           111.1272                                         !
 ! A40   A(1,18,16)             83.8164                                         !
 ! A41   A(1,18,29)             98.7432                                         !
 ! A42   A(1,18,39)             82.1418                                         !
 ! A43   A(16,18,29)            98.553                                          !
 ! A44   A(16,18,37)            98.4246                                         !
 ! A45   A(16,18,39)            86.1708                                         !
 ! A46   A(29,18,37)            91.8726                                         !
 ! A47   A(37,18,39)            86.9694                                         !
 ! A48   A(12,19,31)           106.6474                                         !
 ! A49   A(12,19,32)           116.1943                                         !
 ! A50   A(12,19,33)           106.6456                                         !
 ! A51   A(31,19,32)           110.4356                                         !
 ! A52   A(31,19,33)           104.5995                                         !
 ! A53   A(32,19,33)           111.559                                          !
 ! A54   A(16,20,23)           106.6023                                         !
 ! A55   A(16,20,24)           109.0909                                         !
 ! A56   A(16,20,25)           113.3502                                         !
 ! A57   A(23,20,24)           107.6739                                         !
 ! A58   A(23,20,25)           109.2653                                         !
 ! A59   A(24,20,25)           110.6324                                         !
 ! A60   A(12,21,34)           106.3126                                         !
 ! A61   A(12,21,35)           113.059                                          !
 ! A62   A(12,21,36)           109.3841                                         !
 ! A63   A(34,21,35)           109.6614                                         !
 ! A64   A(34,21,36)           106.663                                          !
 ! A65   A(35,21,36)           111.4396                                         !
 ! A66   A(16,22,26)           107.1547                                         !
 ! A67   A(16,22,27)           113.0893                                         !
 ! A68   A(16,22,28)           110.2655                                         !
 ! A69   A(26,22,27)           108.2259                                         !
 ! A70   A(26,22,28)           108.5799                                         !
 ! A71   A(27,22,28)           109.3912                                         !
 ! A72   A(20,23,46)           108.0585                                         !
 ! A73   A(20,23,47)           112.3279                                         !
 ! A74   A(20,23,48)           110.7866                                         !
 ! A75   A(46,23,47)           108.2895                                         !
 ! A76   A(46,23,48)           109.7783                                         !
 ! A77   A(47,23,48)           107.5596                                         !
 ! A78   A(20,24,49)           108.4989                                         !
 ! A79   A(20,24,50)           110.9094                                         !
 ! A80   A(20,24,51)           113.0905                                         !
 ! A81   A(49,24,50)           107.445                                          !
 ! A82   A(49,24,51)           107.3347                                         !
 ! A83   A(50,24,51)           109.3409                                         !
 ! A84   A(20,25,52)           108.3479                                         !
 ! A85   A(20,25,53)           113.6878                                         !
 ! A86   A(20,25,54)           111.8332                                         !
 ! A87   A(52,25,53)           107.4296                                         !
 ! A88   A(52,25,54)           106.7819                                         !
 ! A89   A(53,25,54)           108.4453                                         !
 ! A90   A(22,26,61)           108.6885                                         !
 ! A91   A(22,26,62)           112.2082                                         !
 ! A92   A(22,26,63)           112.1922                                         !
 ! A93   A(61,26,62)           107.8549                                         !
 ! A94   A(61,26,63)           107.3365                                         !
 ! A95   A(62,26,63)           108.3585                                         !
 ! A96   A(22,27,55)           112.3574                                         !
 ! A97   A(22,27,56)           108.8314                                         !
 ! A98   A(22,27,57)           112.5104                                         !
 ! A99   A(55,27,56)           107.2754                                         !
 ! A100  A(55,27,57)           108.3868                                         !
 ! A101  A(56,27,57)           107.2243                                         !
 ! A102  A(22,28,58)           112.5356                                         !
 ! A103  A(22,28,59)           112.0072                                         !
 ! A104  A(22,28,60)           108.7507                                         !
 ! A105  A(58,28,59)           108.2107                                         !
 ! A106  A(58,28,60)           107.6054                                         !
 ! A107  A(59,28,60)           107.5209                                         !
 ! A108  A(19,32,43)           108.5033                                         !
 ! A109  A(19,32,44)           113.1843                                         !
 ! A110  A(19,32,45)           112.6333                                         !
 ! A111  A(43,32,44)           106.9372                                         !
 ! A112  A(43,32,45)           107.2569                                         !
 ! A113  A(44,32,45)           108.0137                                         !
 ! A114  A(21,35,40)           109.3581                                         !
 ! A115  A(21,35,41)           112.2366                                         !
 ! A116  A(21,35,42)           108.9657                                         !
 ! A117  A(40,35,41)           109.4433                                         !
 ! A118  A(40,35,42)           109.4163                                         !
 ! A119  A(41,35,42)           107.3701                                         !
 ! A120  A(18,37,38)           109.863                                          !
 ! A121  L(1,18,37,16,-1)      182.2411                                         !
 ! A122  L(29,18,39,1,-1)      180.885                                          !
 ! A123  L(18,29,30,7,-1)      177.8031                                         !
 ! A124  L(1,18,37,16,-2)      191.1425                                         !
 ! A125  L(29,18,39,1,-2)      184.7109                                         !
 ! A126  L(18,29,30,7,-2)      176.3501                                         !
 ! D1    D(3,1,2,4)             -3.3503                                         !
 ! D2    D(3,1,2,7)            177.0972                                         !
 ! D3    D(18,1,2,4)          -175.8213                                         !
 ! D4    D(18,1,2,7)             4.6262                                         !
 ! D5    D(2,1,3,6)              4.5395                                         !
 ! D6    D(2,1,3,11)          -173.0149                                         !
 ! D7    D(18,1,3,6)           176.779                                          !
 ! D8    D(18,1,3,11)           -0.7754                                         !
 ! D9    D(2,1,18,16)         -168.2494                                         !
 ! D10   D(2,1,18,29)          -70.5087                                         !
 ! D11   D(2,1,18,39)          104.7804                                         !
 ! D12   D(3,1,18,16)           19.244                                          !
 ! D13   D(3,1,18,29)          116.9847                                         !
 ! D14   D(3,1,18,39)          -67.7262                                         !
 ! D15   D(2,1,37,38)          -92.6083                                         !
 ! D16   D(3,1,37,38)          101.0979                                         !
 ! D17   D(1,2,4,5)             -0.0094                                         !
 ! D18   D(1,2,4,8)            179.7041                                         !
 ! D19   D(7,2,4,5)            179.4964                                         !
 ! D20   D(7,2,4,8)             -0.7901                                         !
 ! D21   D(1,2,7,12)           -37.4762                                         !
 ! D22   D(1,2,7,13)          -162.6321                                         !
 ! D23   D(1,2,7,14)            80.4967                                         !
 ! D24   D(4,2,7,12)           142.988                                          !
 ! D25   D(4,2,7,13)            17.8322                                         !
 ! D26   D(4,2,7,14)           -99.0391                                         !
 ! D27   D(1,3,6,5)             -2.3925                                         !
 ! D28   D(1,3,6,10)           178.7885                                         !
 ! D29   D(11,3,6,5)           174.9968                                         !
 ! D30   D(11,3,6,10)           -3.8222                                         !
 ! D31   D(1,3,11,15)           87.1702                                         !
 ! D32   D(1,3,11,16)          -24.0405                                         !
 ! D33   D(1,3,11,17)         -153.9756                                         !
 ! D34   D(6,3,11,15)          -90.2962                                         !
 ! D35   D(6,3,11,16)          158.4931                                         !
 ! D36   D(6,3,11,17)           28.558                                          !
 ! D37   D(2,4,5,6)              2.0617                                         !
 ! D38   D(2,4,5,9)           -179.3374                                         !
 ! D39   D(8,4,5,6)           -177.6479                                         !
 ! D40   D(8,4,5,9)              0.953                                          !
 ! D41   D(4,5,6,3)             -0.8864                                         !
 ! D42   D(4,5,6,10)           177.9163                                         !
 ! D43   D(9,5,6,3)           -179.4884                                         !
 ! D44   D(9,5,6,10)            -0.6857                                         !
 ! D45   D(2,7,12,19)          -69.9414                                         !
 ! D46   D(2,7,12,21)          165.8634                                         !
 ! D47   D(13,7,12,19)          54.2142                                         !
 ! D48   D(13,7,12,21)         -69.981                                          !
 ! D49   D(14,7,12,19)         171.379                                          !
 ! D50   D(14,7,12,21)          47.1838                                         !
 ! D51   D(3,11,16,18)          32.6561                                         !
 ! D52   D(3,11,16,20)         154.7727                                         !
 ! D53   D(3,11,16,22)         -88.9455                                         !
 ! D54   D(15,11,16,18)        -80.8494                                         !
 ! D55   D(15,11,16,20)         41.2671                                         !
 ! D56   D(15,11,16,22)        157.549                                          !
 ! D57   D(17,11,16,18)        160.9892                                         !
 ! D58   D(17,11,16,20)        -76.8943                                         !
 ! D59   D(17,11,16,22)         39.3876                                         !
 ! D60   D(7,12,19,31)          55.8703                                         !
 ! D61   D(7,12,19,32)         -67.7189                                         !
 ! D62   D(7,12,19,33)         167.216                                          !
 ! D63   D(21,12,19,31)        178.1388                                         !
 ! D64   D(21,12,19,32)         54.5496                                         !
 ! D65   D(21,12,19,33)        -70.5154                                         !
 ! D66   D(7,12,21,34)         -60.8269                                         !
 ! D67   D(7,12,21,35)         178.802                                          !
 ! D68   D(7,12,21,36)          53.9884                                         !
 ! D69   D(19,12,21,34)        175.9094                                         !
 ! D70   D(19,12,21,35)         55.5383                                         !
 ! D71   D(19,12,21,36)        -69.2753                                         !
 ! D72   D(11,16,18,1)         -24.8592                                         !
 ! D73   D(11,16,18,29)       -122.8099                                         !
 ! D74   D(11,16,18,37)        143.9983                                         !
 ! D75   D(11,16,18,39)         57.6378                                         !
 ! D76   D(20,16,18,1)        -135.1885                                         !
 ! D77   D(20,16,18,29)        126.8609                                         !
 ! D78   D(20,16,18,37)         33.6691                                         !
 ! D79   D(20,16,18,39)        -52.6914                                         !
 ! D80   D(22,16,18,1)          84.2703                                         !
 ! D81   D(22,16,18,29)        -13.6803                                         !
 ! D82   D(22,16,18,37)       -106.8721                                         !
 ! D83   D(22,16,18,39)        166.7674                                         !
 ! D84   D(11,16,20,23)        -81.6224                                         !
 ! D85   D(11,16,20,24)        162.3734                                         !
 ! D86   D(11,16,20,25)         38.6244                                         !
 ! D87   D(18,16,20,23)         24.3476                                         !
 ! D88   D(18,16,20,24)        -91.6566                                         !
 ! D89   D(18,16,20,25)        144.5944                                         !
 ! D90   D(22,16,20,23)        167.6488                                         !
 ! D91   D(22,16,20,24)         51.6446                                         !
 ! D92   D(22,16,20,25)        -72.1045                                         !
 ! D93   D(11,16,22,26)         51.6487                                         !
 ! D94   D(11,16,22,27)        -67.5229                                         !
 ! D95   D(11,16,22,28)        169.6468                                         !
 ! D96   D(18,16,22,26)        -53.62                                           !
 ! D97   D(18,16,22,27)       -172.7916                                         !
 ! D98   D(18,16,22,28)         64.378                                          !
 ! D99   D(20,16,22,26)        162.9866                                         !
 ! D100  D(20,16,22,27)         43.815                                          !
 ! D101  D(20,16,22,28)        -79.0154                                         !
 ! D102  D(16,18,37,38)         79.9809                                         !
 ! D103  D(29,18,37,38)        -18.9515                                         !
 ! D104  D(39,18,37,38)        165.654                                          !
 ! D105  D(12,19,32,43)        178.0302                                         !
 ! D106  D(12,19,32,44)         59.5068                                         !
 ! D107  D(12,19,32,45)        -63.3847                                         !
 ! D108  D(31,19,32,43)         56.4286                                         !
 ! D109  D(31,19,32,44)        -62.0948                                         !
 ! D110  D(31,19,32,45)        175.0137                                         !
 ! D111  D(33,19,32,43)        -59.4483                                         !
 ! D112  D(33,19,32,44)       -177.9718                                         !
 ! D113  D(33,19,32,45)         59.1368                                         !
 ! D114  D(16,20,23,46)       -178.0702                                         !
 ! D115  D(16,20,23,47)         62.5407                                         !
 ! D116  D(16,20,23,48)        -57.7747                                         !
 ! D117  D(24,20,23,46)        -61.1206                                         !
 ! D118  D(24,20,23,47)        179.4903                                         !
 ! D119  D(24,20,23,48)         59.1749                                         !
 ! D120  D(25,20,23,46)         59.087                                          !
 ! D121  D(25,20,23,47)        -60.3022                                         !
 ! D122  D(25,20,23,48)        179.3825                                         !
 ! D123  D(16,20,24,49)        169.3489                                         !
 ! D124  D(16,20,24,50)         51.5588                                         !
 ! D125  D(16,20,24,51)        -71.6915                                         !
 ! D126  D(23,20,24,49)         54.0326                                         !
 ! D127  D(23,20,24,50)        -63.7575                                         !
 ! D128  D(23,20,24,51)        172.9922                                         !
 ! D129  D(25,20,24,49)        -65.3076                                         !
 ! D130  D(25,20,24,50)        176.9023                                         !
 ! D131  D(25,20,24,51)         53.652                                          !
 ! D132  D(16,20,25,52)       -177.73                                           !
 ! D133  D(16,20,25,53)         62.9223                                         !
 ! D134  D(16,20,25,54)        -60.306                                          !
 ! D135  D(23,20,25,52)        -59.0077                                         !
 ! D136  D(23,20,25,53)       -178.3554                                         !
 ! D137  D(23,20,25,54)         58.4163                                         !
 ! D138  D(24,20,25,52)         59.3679                                         !
 ! D139  D(24,20,25,53)        -59.9798                                         !
 ! D140  D(24,20,25,54)        176.7919                                         !
 ! D141  D(12,21,35,40)         49.7079                                         !
 ! D142  D(12,21,35,41)        -71.9472                                         !
 ! D143  D(12,21,35,42)        169.2665                                         !
 ! D144  D(34,21,35,40)        -68.7337                                         !
 ! D145  D(34,21,35,41)        169.6111                                         !
 ! D146  D(34,21,35,42)         50.8248                                         !
 ! D147  D(36,21,35,40)        173.3981                                         !
 ! D148  D(36,21,35,41)         51.743                                          !
 ! D149  D(36,21,35,42)        -67.0433                                         !
 ! D150  D(16,22,26,61)        173.6308                                         !
 ! D151  D(16,22,26,62)         54.4408                                         !
 ! D152  D(16,22,26,63)        -67.8325                                         !
 ! D153  D(27,22,26,61)        -64.1103                                         !
 ! D154  D(27,22,26,62)        176.6998                                         !
 ! D155  D(27,22,26,63)         54.4264                                         !
 ! D156  D(28,22,26,61)         54.54                                           !
 ! D157  D(28,22,26,62)        -64.6499                                         !
 ! D158  D(28,22,26,63)        173.0767                                         !
 ! D159  D(16,22,27,55)        -68.7814                                         !
 ! D160  D(16,22,27,56)        172.5637                                         !
 ! D161  D(16,22,27,57)         53.8784                                         !
 ! D162  D(26,22,27,55)        172.6669                                         !
 ! D163  D(26,22,27,56)         54.012                                          !
 ! D164  D(26,22,27,57)        -64.6733                                         !
 ! D165  D(28,22,27,55)         54.533                                          !
 ! D166  D(28,22,27,56)        -64.1218                                         !
 ! D167  D(28,22,27,57)        177.1929                                         !
 ! D168  D(16,22,28,58)         65.4635                                         !
 ! D169  D(16,22,28,59)        -56.721                                          !
 ! D170  D(16,22,28,60)       -175.4141                                         !
 ! D171  D(26,22,28,58)       -177.4189                                         !
 ! D172  D(26,22,28,59)         60.3966                                         !
 ! D173  D(26,22,28,60)        -58.2964                                         !
 ! D174  D(27,22,28,58)        -59.5064                                         !
 ! D175  D(27,22,28,59)        178.3091                                         !
 ! D176  D(27,22,28,60)         59.6161                                         !
 --------------------------------------------------------------------------------
 Stoichiometry    C20H36N2O3PRu(2)
 Framework group  C1[X(C20H36N2O3PRu)]
 Deg. of freedom   183
 Full point group                 C1      NOp   1
 Largest Abelian subgroup         C1      NOp   1
 Largest concise Abelian subgroup C1      NOp   1
                         Standard orientation:                         
 ---------------------------------------------------------------------
 Center     Atomic      Atomic             Coordinates (Angstroms)
 Number     Number       Type             X           Y           Z
 ---------------------------------------------------------------------
      1          7           0       -0.740744    1.421385   -0.097334
      2          6           0       -1.962889    1.883742    0.220318
      3          6           0        0.176224    2.217374   -0.682536
      4          6           0       -2.302035    3.215577    0.020287
      5          6           0       -1.345983    4.073481   -0.520011
      6          6           0       -0.101689    3.569518   -0.882573
      7          6           0       -2.884302    0.850966    0.802167
      8          1           0       -3.300153    3.569857    0.280000
      9          1           0       -1.579193    5.127783   -0.678875
     10          1           0        0.652118    4.212281   -1.338543
     11          6           0        1.444481    1.563067   -1.139854
     12          7           0       -2.704391   -0.462303    0.154727
     13          1           0       -3.930707    1.199114    0.749166
     14          1           0       -2.639637    0.726296    1.869842
     15          1           0        1.252535    1.191978   -2.160658
     16         15           0        1.781325   -0.010082   -0.185180
     17          1           0        2.283035    2.273669   -1.169649
     18         44           0       -0.396009   -0.598686    0.121018
     19          6           0       -3.209089   -0.435906   -1.239049
     20          6           0        2.856482   -1.047030   -1.354914
     21          6           0       -3.368426   -1.499991    0.974907
     22          6           0        2.783938    0.592299    1.313989
     23          6           0        1.900696   -1.730179   -2.337636
     24          6           0        3.557246   -2.143413   -0.550425
     25          6           0        3.875988   -0.217106   -2.136839
     26          6           0        1.994130    1.739647    1.954768
     27          6           0        4.169400    1.117614    0.936849
     28          6           0        2.929472   -0.533359    2.341605
     29          6           0       -0.400040   -0.686863    1.976174
     30          8           0       -0.475617   -0.779101    3.135268
     31          1           0       -2.681794    0.383065   -1.749602
     32          6           0       -4.712700   -0.284454   -1.405585
     33          1           0       -2.839824   -1.347074   -1.724055
     34          1           0       -2.871876   -1.482615    1.956548
     35          6           0       -3.263823   -2.886465    0.375567
     36          1           0       -4.424733   -1.212017    1.147899
     37          8           0       -0.181698   -2.648429   -0.043577
     38          1           0        0.146467   -3.011572    0.787961
     39          8           0       -0.545642   -0.561342   -1.855326
     40          1           0       -2.211261   -3.091382    0.107799
     41          1           0       -3.898030   -3.003667   -0.515915
     42          1           0       -3.602439   -3.623932    1.118924
     43          1           0       -4.942647   -0.244410   -2.480804
     44          1           0       -5.107426    0.641452   -0.958342
     45          1           0       -5.272856   -1.131840   -0.983418
     46          1           0        2.499693   -2.369029   -3.009348
     47          1           0        1.346624   -1.006515   -2.952955
     48          1           0        1.160928   -2.344757   -1.800281
     49          1           0        4.021595   -2.852166   -1.255672
     50          1           0        2.833944   -2.708238    0.056596
     51          1           0        4.355499   -1.757788    0.099621
     52          1           0        4.424346   -0.890997   -2.816277
     53          1           0        4.617447    0.283403   -1.501271
     54          1           0        3.388804    0.541685   -2.767015
     55          1           0        4.838452    0.319219    0.589107
     56          1           0        4.634192    1.568823    1.829507
     57          1           0        4.127585    1.897764    0.161599
     58          1           0        3.525902   -1.372514    1.964093
     59          1           0        1.956943   -0.922460    2.665217
     60          1           0        3.441262   -0.135023    3.233712
     61          1           0        2.494396    2.032358    2.892421
     62          1           0        0.963815    1.448467    2.199486
     63          1           0        1.958634    2.630499    1.310201
 ---------------------------------------------------------------------
 Rotational constants (GHZ):           0.2474712           0.1559111           0.1345145
 General basis read from cards:  (5D, 7F)
 ======================================================================================================
                                       Pseudopotential Parameters
 ======================================================================================================
  Center     Atomic      Valence      Angular      Power
  Number     Number     Electrons     Momentum     of R      Exponent        Coefficient   SO-Coeffient
 ======================================================================================================
    1          7
                                   No pseudopotential on this center.
    2          6
                                   No pseudopotential on this center.
    3          6
                                   No pseudopotential on this center.
    4          6
                                   No pseudopotential on this center.
    5          6
                                   No pseudopotential on this center.
    6          6
                                   No pseudopotential on this center.
    7          6
                                   No pseudopotential on this center.
    8          1
                                   No pseudopotential on this center.
    9          1
                                   No pseudopotential on this center.
   10          1
                                   No pseudopotential on this center.
   11          6
                                   No pseudopotential on this center.
   12          7
                                   No pseudopotential on this center.
   13          1
                                   No pseudopotential on this center.
   14          1
                                   No pseudopotential on this center.
   15          1
                                   No pseudopotential on this center.
   16         15
                                   No pseudopotential on this center.
   17          1
                                   No pseudopotential on this center.
   18         44           16
                                      G and up 
                                                     2        1.0000000        0.00000000    0.00000000
                                      S - G
                                                     2       11.1052690      209.82297100    0.00000000
                                                     2        5.4147450       30.65472600    0.00000000
                                      P - G
                                                     2        9.7712710      146.33618200    0.00000000
                                                     2        5.0739910       24.12787700    0.00000000
                                      D - G
                                                     2        7.6714230       67.51589700    0.00000000
                                                     2        4.1365650        9.87010400    0.00000000
                                      F - G
                                                     2       11.3600000      -28.34061600    0.00000000
                                                     2        5.6800000       -4.94462900    0.00000000
   19          6
                                   No pseudopotential on this center.
   20          6
                                   No pseudopotential on this center.
   21          6
                                   No pseudopotential on this center.
   22          6
                                   No pseudopotential on this center.
   23          6
                                   No pseudopotential on this center.
   24          6
                                   No pseudopotential on this center.
   25          6
                                   No pseudopotential on this center.
   26          6
                                   No pseudopotential on this center.
   27          6
                                   No pseudopotential on this center.
   28          6
                                   No pseudopotential on this center.
   29          6
                                   No pseudopotential on this center.
   30          8
                                   No pseudopotential on this center.
   31          1
                                   No pseudopotential on this center.
   32          6
                                   No pseudopotential on this center.
   33          1
                                   No pseudopotential on this center.
   34          1
                                   No pseudopotential on this center.
   35          6
                                   No pseudopotential on this center.
   36          1
                                   No pseudopotential on this center.
   37          8
                                   No pseudopotential on this center.
   38          1
                                   No pseudopotential on this center.
   39          8
                                   No pseudopotential on this center.
   40          1
                                   No pseudopotential on this center.
   41          1
                                   No pseudopotential on this center.
   42          1
                                   No pseudopotential on this center.
   43          1
                                   No pseudopotential on this center.
   44          1
                                   No pseudopotential on this center.
   45          1
                                   No pseudopotential on this center.
   46          1
                                   No pseudopotential on this center.
   47          1
                                   No pseudopotential on this center.
   48          1
                                   No pseudopotential on this center.
   49          1
                                   No pseudopotential on this center.
   50          1
                                   No pseudopotential on this center.
   51          1
                                   No pseudopotential on this center.
   52          1
                                   No pseudopotential on this center.
   53          1
                                   No pseudopotential on this center.
   54          1
                                   No pseudopotential on this center.
   55          1
                                   No pseudopotential on this center.
   56          1
                                   No pseudopotential on this center.
   57          1
                                   No pseudopotential on this center.
   58          1
                                   No pseudopotential on this center.
   59          1
                                   No pseudopotential on this center.
   60          1
                                   No pseudopotential on this center.
   61          1
                                   No pseudopotential on this center.
   62          1
                                   No pseudopotential on this center.
   63          1
                                   No pseudopotential on this center.
 ======================================================================================================
 There are   613 symmetry adapted cartesian basis functions of A   symmetry.
 There are   584 symmetry adapted basis functions of A   symmetry.
   584 basis functions,  1213 primitive gaussians,   613 cartesian basis functions
   113 alpha electrons      112 beta electrons
       nuclear repulsion energy      3470.8141311285 Hartrees.
 NAtoms=   63 NActive=   63 NUniq=   63 SFac= 1.00D+00 NAtFMM=   60 NAOKFM=T Big=T
 Integral buffers will be    131072 words long.
 Regular integral format.
 Two-electron integral symmetry is turned on.
 Nuclear repulsion after empirical dispersion term =     3470.7186087232 Hartrees.
 ------------------------------------------------------------------------------
 Polarizable Continuum Model (PCM)
 =================================
 Model                : PCM.
 Atomic radii         : SMD-Coulomb.
 Polarization charges : Total charges.
 Charge compensation  : None.
 Solution method      : On-the-fly selection.
 Cavity type          : VdW (van der Waals Surface) (Alpha=1.000).
 Cavity algorithm     : GePol (No added spheres)
                        Default sphere list used, NSphG=   63.
                        Lebedev-Laikov grids with approx.  5.0 points / Ang**2.
                        Smoothing algorithm: York/Karplus (Gamma=1.0000).
                        Polarization charges: spherical gaussians, with
                                              point-specific exponents (IZeta= 3).
                        Self-potential: point-specific (ISelfS= 7).
                        Self-field    : sphere-specific E.n sum rule (ISelfD= 2).
 Solvent              : Water, Eps=  78.355300 Eps(inf)=   1.777849
 ------------------------------------------------------------------------------
 ------------------------------------------------------------------------------
 Atomic radii for non-electrostatic terms: SMD-CDS.
 ------------------------------------------------------------------------------
 Nuclear repulsion after PCM non-electrostatic terms =     3470.7354784082 Hartrees.
 One-electron integrals computed using PRISM.
   1 Symmetry operations used in ECPInt.
 ECPInt:  NShTT=   39340 NPrTT=  276277 LenC2=   36554 LenP2D=  140050.
 LDataN:  DoStor=T MaxTD1= 6 Len=  172
 NBasis=   584 RedAO= T EigKep=  4.39D-04  NBF=   584
 NBsUse=   584 1.00D-06 EigRej= -1.00D+00 NBFU=   584
 Defaulting to unpruned grid for atomic number  44.
 ExpMin= 1.60D-02 ExpMax= 9.48D+04 ExpMxC= 3.24D+03 IAcc=3 IRadAn=         5 AccDes= 0.00D+00
 Harris functional with IExCor= 1009 and IRadAn=       5 diagonalized for initial guess.
 HarFok:  IExCor= 1009 AccDes= 0.00D+00 IRadAn=         5 IDoV= 1 UseB2=F ITyADJ=14
 ICtDFT=  3500011 ScaDFX=  1.000000  1.000000  1.000000  1.000000
 Defaulting to unpruned grid for atomic number  44.
 FoFCou: FMM=F IPFlag=           0 FMFlag=      100000 FMFlg1=        2001
         NFxFlg=           0 DoJE=T BraDBF=F KetDBF=T FulRan=T
         wScrn=  0.000000 ICntrl=       500 IOpCl=  0 I1Cent=   200000004 NGrid=           0
         NMat0=    1 NMatS0=      1 NMatT0=    0 NMatD0=    1 NMtDS0=    0 NMtDT0=    0
 Petite list used in FoFCou.
 Initial guess <Sx>= 0.0000 <Sy>= 0.0000 <Sz>= 0.5000 <S**2>= 0.7500 S= 0.5000
 Requested convergence on RMS density matrix=1.00D-08 within 128 cycles.
 Requested convergence on MAX density matrix=1.00D-06.
 Requested convergence on             energy=1.00D-06.
 No special actions if energy rises.
 Defaulting to unpruned grid for atomic number  44.
 Defaulting to unpruned grid for atomic number  44.
 Defaulting to unpruned grid for atomic number  44.
 Defaulting to unpruned grid for atomic number  44.
 Defaulting to unpruned grid for atomic number  44.
 Defaulting to unpruned grid for atomic number  44.
 Defaulting to unpruned grid for atomic number  44.
 Defaulting to unpruned grid for atomic number  44.
 Defaulting to unpruned grid for atomic number  44.
 Defaulting to unpruned grid for atomic number  44.
 Defaulting to unpruned grid for atomic number  44.
 Defaulting to unpruned grid for atomic number  44.
 Defaulting to unpruned grid for atomic number  44.
 Defaulting to unpruned grid for atomic number  44.
 Defaulting to unpruned grid for atomic number  44.
 Defaulting to unpruned grid for atomic number  44.
 Inv3:  Mode=1 IEnd=    45139923.
 Iteration    1 A*A^-1 deviation from unit magnitude is 1.07D-14 for    728.
 Iteration    1 A*A^-1 deviation from orthogonality  is 5.60D-15 for   3855   1885.
 Iteration    1 A^-1*A deviation from unit magnitude is 9.55D-15 for    445.
 Iteration    1 A^-1*A deviation from orthogonality  is 1.05D-14 for   3517   3470.
 EnCoef did   100 forward-backward iterations
 EnCoef did   100 forward-backward iterations
 Restarting incremental Fock formation.
 Error on total polarization charges =  0.07042
 SCF Done:  E(UPBE1PBE) =  -1554.02378415     A.U. after   29 cycles
            NFock= 29  Conv=0.39D-08     -V/T= 2.0467
 <Sx>= 0.0000 <Sy>= 0.0000 <Sz>= 0.5000 <S**2>= 0.7571 S= 0.5035
 <L.S>= 0.000000000000E+00
 SMD-CDS (non-electrostatic) energy       (kcal/mol) =      10.59
 (included in total energy above)
 Annihilation of the first spin contaminant:
 S**2 before annihilation     0.7571,   after     0.7500
 DoSCS=F DFT=T ScalE2(SS,OS)=  1.000000  1.000000
 ExpMin= 1.60D-02 ExpMax= 9.48D+04 ExpMxC= 3.24D+03 IAcc=3 IRadAn=         5 AccDes= 0.00D+00
 HarFok:  IExCor=  205 AccDes= 0.00D+00 IRadAn=         5 IDoV=-2 UseB2=F ITyADJ=14
 ICtDFT= 12500011 ScaDFX=  1.000000  1.000000  1.000000  1.000000
 Defaulting to unpruned grid for atomic number  44.
 GSVD:  LWork=       -1428 too small for GESVD, short by        6290 words or        6290 for optimal perf.
 Range of M.O.s used for correlation:    35   584
 NBasis=   584 NAE=   113 NBE=   112 NFC=    34 NFV=     0
 NROrb=    550 NOA=    79 NOB=    78 NVA=   471 NVB=   472
 NEqPCM:  Using non-equilibrium solvation (IEInf=1, Eps=  78.3553, EpsInf=   1.7778)
 Inv3:  Mode=1 IEnd=    45139923.
 Iteration    1 A*A^-1 deviation from unit magnitude is 1.33D-14 for    230.
 Iteration    1 A*A^-1 deviation from orthogonality  is 8.93D-15 for   2881    211.
 Iteration    1 A^-1*A deviation from unit magnitude is 1.35D-14 for    230.
 Iteration    1 A^-1*A deviation from orthogonality  is 8.66D-15 for   3517   3470.
 Orbital symmetries:
 Alpha Orbitals:
       Occupied  (A) (A) (A) (A) (A) (A) (A) (A) (A) (A) (A) (A)
                 (A) (A) (A) (A) (A) (A) (A) (A) (A) (A) (A) (A)
                 (A) (A) (A) (A) (A) (A) (A) (A) (A) (A) (A) (A)
                 (A) (A) (A) (A) (A) (A) (A) (A) (A) (A) (A) (A)
                 (A) (A) (A) (A) (A) (A) (A) (A) (A) (A) (A) (A)
                 (A) (A) (A) (A) (A) (A) (A) (A) (A) (A) (A) (A)
                 (A) (A) (A) (A) (A) (A) (A) (A) (A) (A) (A) (A)
                 (A) (A) (A) (A) (A) (A) (A) (A) (A) (A) (A) (A)
                 (A) (A) (A) (A) (A) (A) (A) (A) (A) (A) (A) (A)
                 (A) (A) (A) (A) (A)
       Virtual   (A) (A) (A) (A) (A) (A) (A) (A) (A) (A) (A) (A)
                 (A) (A) (A) (A) (A) (A) (A) (A) (A) (A) (A) (A)
                 (A) (A) (A) (A) (A) (A) (A) (A) (A) (A) (A) (A)
                 (A) (A) (A) (A) (A) (A) (A) (A) (A) (A) (A) (A)
                 (A) (A) (A) (A) (A) (A) (A) (A) (A) (A) (A) (A)
                 (A) (A) (A) (A) (A) (A) (A) (A) (A) (A) (A) (A)
                 (A) (A) (A) (A) (A) (A) (A) (A) (A) (A) (A) (A)
                 (A) (A) (A) (A) (A) (A) (A) (A) (A) (A) (A) (A)
                 (A) (A) (A) (A) (A) (A) (A) (A) (A) (A) (A) (A)
                 (A) (A) (A) (A) (A) (A) (A) (A) (A) (A) (A) (A)
                 (A) (A) (A) (A) (A) (A) (A) (A) (A) (A) (A) (A)
                 (A) (A) (A) (A) (A) (A) (A) (A) (A) (A) (A) (A)
                 (A) (A) (A) (A) (A) (A) (A) (A) (A) (A) (A) (A)
                 (A) (A) (A) (A) (A) (A) (A) (A) (A) (A) (A) (A)
                 (A) (A) (A) (A) (A) (A) (A) (A) (A) (A) (A) (A)
                 (A) (A) (A) (A) (A) (A) (A) (A) (A) (A) (A) (A)
                 (A) (A) (A) (A) (A) (A) (A) (A) (A) (A) (A) (A)
                 (A) (A) (A) (A) (A) (A) (A) (A) (A) (A) (A) (A)
                 (A) (A) (A) (A) (A) (A) (A) (A) (A) (A) (A) (A)
                 (A) (A) (A) (A) (A) (A) (A) (A) (A) (A) (A) (A)
                 (A) (A) (A) (A) (A) (A) (A) (A) (A) (A) (A) (A)
                 (A) (A) (A) (A) (A) (A) (A) (A) (A) (A) (A) (A)
                 (A) (A) (A) (A) (A) (A) (A) (A) (A) (A) (A) (A)
                 (A) (A) (A) (A) (A) (A) (A) (A) (A) (A) (A) (A)
                 (A) (A) (A) (A) (A) (A) (A) (A) (A) (A) (A) (A)
                 (A) (A) (A) (A) (A) (A) (A) (A) (A) (A) (A) (A)
                 (A) (A) (A) (A) (A) (A) (A) (A) (A) (A) (A) (A)
                 (A) (A) (A) (A) (A) (A) (A) (A) (A) (A) (A) (A)
                 (A) (A) (A) (A) (A) (A) (A) (A) (A) (A) (A) (A)
                 (A) (A) (A) (A) (A) (A) (A) (A) (A) (A) (A) (A)
                 (A) (A) (A) (A) (A) (A) (A) (A) (A) (A) (A) (A)
                 (A) (A) (A) (A) (A) (A) (A) (A) (A) (A) (A) (A)
                 (A) (A) (A) (A) (A) (A) (A) (A) (A) (A) (A) (A)
                 (A) (A) (A) (A) (A) (A) (A) (A) (A) (A) (A) (A)
                 (A) (A) (A) (A) (A) (A) (A) (A) (A) (A) (A) (A)
                 (A) (A) (A) (A) (A) (A) (A) (A) (A) (A) (A) (A)
                 (A) (A) (A) (A) (A) (A) (A) (A) (A) (A) (A) (A)
                 (A) (A) (A) (A) (A) (A) (A) (A) (A) (A) (A) (A)
                 (A) (A) (A) (A) (A) (A) (A) (A) (A) (A) (A) (A)
                 (A) (A) (A)
 Beta  Orbitals:
       Occupied  (A) (A) (A) (A) (A) (A) (A) (A) (A) (A) (A) (A)
                 (A) (A) (A) (A) (A) (A) (A) (A) (A) (A) (A) (A)
                 (A) (A) (A) (A) (A) (A) (A) (A) (A) (A) (A) (A)
                 (A) (A) (A) (A) (A) (A) (A) (A) (A) (A) (A) (A)
                 (A) (A) (A) (A) (A) (A) (A) (A) (A) (A) (A) (A)
                 (A) (A) (A) (A) (A) (A) (A) (A) (A) (A) (A) (A)
                 (A) (A) (A) (A) (A) (A) (A) (A) (A) (A) (A) (A)
                 (A) (A) (A) (A) (A) (A) (A) (A) (A) (A) (A) (A)
                 (A) (A) (A) (A) (A) (A) (A) (A) (A) (A) (A) (A)
                 (A) (A) (A) (A)
       Virtual   (A) (A) (A) (A) (A) (A) (A) (A) (A) (A) (A) (A)
                 (A) (A) (A) (A) (A) (A) (A) (A) (A) (A) (A) (A)
                 (A) (A) (A) (A) (A) (A) (A) (A) (A) (A) (A) (A)
                 (A) (A) (A) (A) (A) (A) (A) (A) (A) (A) (A) (A)
                 (A) (A) (A) (A) (A) (A) (A) (A) (A) (A) (A) (A)
                 (A) (A) (A) (A) (A) (A) (A) (A) (A) (A) (A) (A)
                 (A) (A) (A) (A) (A) (A) (A) (A) (A) (A) (A) (A)
                 (A) (A) (A) (A) (A) (A) (A) (A) (A) (A) (A) (A)
                 (A) (A) (A) (A) (A) (A) (A) (A) (A) (A) (A) (A)
                 (A) (A) (A) (A) (A) (A) (A) (A) (A) (A) (A) (A)
                 (A) (A) (A) (A) (A) (A) (A) (A) (A) (A) (A) (A)
                 (A) (A) (A) (A) (A) (A) (A) (A) (A) (A) (A) (A)
                 (A) (A) (A) (A) (A) (A) (A) (A) (A) (A) (A) (A)
                 (A) (A) (A) (A) (A) (A) (A) (A) (A) (A) (A) (A)
                 (A) (A) (A) (A) (A) (A) (A) (A) (A) (A) (A) (A)
                 (A) (A) (A) (A) (A) (A) (A) (A) (A) (A) (A) (A)
                 (A) (A) (A) (A) (A) (A) (A) (A) (A) (A) (A) (A)
                 (A) (A) (A) (A) (A) (A) (A) (A) (A) (A) (A) (A)
                 (A) (A) (A) (A) (A) (A) (A) (A) (A) (A) (A) (A)
                 (A) (A) (A) (A) (A) (A) (A) (A) (A) (A) (A) (A)
                 (A) (A) (A) (A) (A) (A) (A) (A) (A) (A) (A) (A)
                 (A) (A) (A) (A) (A) (A) (A) (A) (A) (A) (A) (A)
                 (A) (A) (A) (A) (A) (A) (A) (A) (A) (A) (A) (A)
                 (A) (A) (A) (A) (A) (A) (A) (A) (A) (A) (A) (A)
                 (A) (A) (A) (A) (A) (A) (A) (A) (A) (A) (A) (A)
                 (A) (A) (A) (A) (A) (A) (A) (A) (A) (A) (A) (A)
                 (A) (A) (A) (A) (A) (A) (A) (A) (A) (A) (A) (A)
                 (A) (A) (A) (A) (A) (A) (A) (A) (A) (A) (A) (A)
                 (A) (A) (A) (A) (A) (A) (A) (A) (A) (A) (A) (A)
                 (A) (A) (A) (A) (A) (A) (A) (A) (A) (A) (A) (A)
                 (A) (A) (A) (A) (A) (A) (A) (A) (A) (A) (A) (A)
                 (A) (A) (A) (A) (A) (A) (A) (A) (A) (A) (A) (A)
                 (A) (A) (A) (A) (A) (A) (A) (A) (A) (A) (A) (A)
                 (A) (A) (A) (A) (A) (A) (A) (A) (A) (A) (A) (A)
                 (A) (A) (A) (A) (A) (A) (A) (A) (A) (A) (A) (A)
                 (A) (A) (A) (A) (A) (A) (A) (A) (A) (A) (A) (A)
                 (A) (A) (A) (A) (A) (A) (A) (A) (A) (A) (A) (A)
                 (A) (A) (A) (A) (A) (A) (A) (A) (A) (A) (A) (A)
                 (A) (A) (A) (A) (A) (A) (A) (A) (A) (A) (A) (A)
                 (A) (A) (A) (A)
   100 initial guesses have been made.
 Convergence on wavefunction:    0.001000000000000
 Iteration     1 Dimension   100 NMult     0 NNew    100
 CISAX will form    13 AO SS matrices at one time.
 Defaulting to unpruned grid for atomic number  44.
 Defaulting to unpruned grid for atomic number  44.
 Defaulting to unpruned grid for atomic number  44.
 Defaulting to unpruned grid for atomic number  44.
 Defaulting to unpruned grid for atomic number  44.
 Defaulting to unpruned grid for atomic number  44.
 Defaulting to unpruned grid for atomic number  44.
 Defaulting to unpruned grid for atomic number  44.
 Defaulting to unpruned grid for atomic number  44.
 Defaulting to unpruned grid for atomic number  44.
 Defaulting to unpruned grid for atomic number  44.
 Defaulting to unpruned grid for atomic number  44.
 Defaulting to unpruned grid for atomic number  44.
 Defaulting to unpruned grid for atomic number  44.
 Defaulting to unpruned grid for atomic number  44.
 Defaulting to unpruned grid for atomic number  44.
 New state      1 was old state      2
 New state      2 was old state      1
 New state      3 was old state     17
 New state      4 was old state     11
 New state      5 was old state     14
 New state      6 was old state      3
 New state      7 was old state      4
 New state      8 was old state      5
 New state      9 was old state     16
 New state     10 was old state      7
 New state     11 was old state     23
 New state     12 was old state      8
 New state     13 was old state      9
 New state     14 was old state     19
 New state     15 was old state      6
 New state     16 was old state     10
 New state     17 was old state     22
 New state     18 was old state     12
 New state     19 was old state     34
 New state     21 was old state     15
 New state     22 was old state     18
 New state     23 was old state     13
 New state     24 was old state     33
 New state     25 was old state     21
 Iteration     2 Dimension   150 NMult   100 NNew     50
 New state      4 was old state      5
 New state      5 was old state      4
 New state      7 was old state      9
 New state      8 was old state      7
 New state      9 was old state      8
 New state     12 was old state     14
 New state     13 was old state     17
 New state     14 was old state     16
 New state     15 was old state     12
 New state     16 was old state     13
 New state     17 was old state     15
 New state     18 was old state     30
 New state     19 was old state     18
 New state     20 was old state     19
 New state     21 was old state     22
 New state     22 was old state     20
 New state     23 was old state     24
 New state     24 was old state     21
 New state     25 was old state     26
 Iteration     3 Dimension   200 NMult   150 NNew     50
 New state     12 was old state     13
 New state     13 was old state     12
 New state     17 was old state     18
 New state     18 was old state     17
 Iteration     4 Dimension   250 NMult   200 NNew     50
 Iteration     5 Dimension   294 NMult   250 NNew     44
 Iteration     6 Dimension   324 NMult   294 NNew     30
 Iteration     7 Dimension   334 NMult   324 NNew     10
 Iteration     8 Dimension   338 NMult   334 NNew      4
 ***********************************************************************
 Excited states from <AA,BB:AA,BB> singles matrix:
 ***********************************************************************
 
 ExtSpn:  IState=     1 X2= 1.043 Y2= 0.043 X2-Y2-1=-1.11D-16
          S2Grnd=  0.757 Ra=  0.000 Rb=  0.009 T= -0.007 S2Ext=  0.003 S2=  0.760
 ExtSpn:  IState=     2 X2= 1.001 Y2= 0.001 X2-Y2-1= 8.88D-16
          S2Grnd=  0.757 Ra=  0.004 Rb=  0.092 T=  0.023 S2Ext=  0.119 S2=  0.876
 ExtSpn:  IState=     3 X2= 1.008 Y2= 0.008 X2-Y2-1= 6.66D-16
          S2Grnd=  0.757 Ra=  0.002 Rb=  0.006 T= -0.003 S2Ext=  0.004 S2=  0.761
 ExtSpn:  IState=     4 X2= 1.007 Y2= 0.007 X2-Y2-1= 4.44D-16
          S2Grnd=  0.757 Ra=  0.586 Rb=  0.368 T=  0.921 S2Ext=  1.876 S2=  2.633
 ExtSpn:  IState=     5 X2= 1.003 Y2= 0.003 X2-Y2-1= 8.88D-16
          S2Grnd=  0.757 Ra=  0.021 Rb=  0.145 T=  0.061 S2Ext=  0.228 S2=  0.985
 ExtSpn:  IState=     6 X2= 1.008 Y2= 0.008 X2-Y2-1=-2.22D-16
          S2Grnd=  0.757 Ra=  0.445 Rb=  0.552 T=  0.974 S2Ext=  1.971 S2=  2.728
 ExtSpn:  IState=     7 X2= 1.002 Y2= 0.002 X2-Y2-1= 8.88D-16
          S2Grnd=  0.757 Ra=  0.406 Rb=  0.489 T= -0.822 S2Ext=  0.073 S2=  0.830
 ExtSpn:  IState=     8 X2= 1.001 Y2= 0.001 X2-Y2-1=-2.22D-16
          S2Grnd=  0.757 Ra=  0.446 Rb=  0.529 T= -0.957 S2Ext=  0.017 S2=  0.775
 ExtSpn:  IState=     9 X2= 1.008 Y2= 0.008 X2-Y2-1=-1.33D-15
          S2Grnd=  0.757 Ra=  0.123 Rb=  0.606 T=  0.379 S2Ext=  1.107 S2=  1.864
 ExtSpn:  IState=    10 X2= 1.009 Y2= 0.009 X2-Y2-1=-1.44D-15
          S2Grnd=  0.757 Ra=  0.384 Rb=  0.282 T=  0.514 S2Ext=  1.180 S2=  1.937
 ExtSpn:  IState=    11 X2= 1.005 Y2= 0.005 X2-Y2-1=-5.55D-16
          S2Grnd=  0.757 Ra=  0.465 Rb=  0.314 T=  0.694 S2Ext=  1.473 S2=  2.230
 ExtSpn:  IState=    12 X2= 1.011 Y2= 0.011 X2-Y2-1= 2.22D-16
          S2Grnd=  0.757 Ra=  0.413 Rb=  0.517 T= -0.439 S2Ext=  0.492 S2=  1.249
 ExtSpn:  IState=    13 X2= 1.006 Y2= 0.006 X2-Y2-1= 8.88D-16
          S2Grnd=  0.757 Ra=  0.507 Rb=  0.480 T=  0.977 S2Ext=  1.964 S2=  2.721
 ExtSpn:  IState=    14 X2= 1.013 Y2= 0.013 X2-Y2-1= 0.00D+00
          S2Grnd=  0.757 Ra=  0.465 Rb=  0.501 T=  0.853 S2Ext=  1.819 S2=  2.576
 ExtSpn:  IState=    15 X2= 1.005 Y2= 0.005 X2-Y2-1= 6.66D-16
          S2Grnd=  0.757 Ra=  0.285 Rb=  0.710 T=  0.671 S2Ext=  1.666 S2=  2.424
 ExtSpn:  IState=    16 X2= 1.000 Y2= 0.000 X2-Y2-1= 1.11D-15
          S2Grnd=  0.757 Ra=  0.783 Rb=  0.198 T= -0.746 S2Ext=  0.234 S2=  0.991
 ExtSpn:  IState=    17 X2= 1.015 Y2= 0.015 X2-Y2-1= 4.44D-16
          S2Grnd=  0.757 Ra=  0.551 Rb=  0.383 T=  0.633 S2Ext=  1.567 S2=  2.324
 ExtSpn:  IState=    18 X2= 1.004 Y2= 0.004 X2-Y2-1= 1.33D-15
          S2Grnd=  0.757 Ra=  0.345 Rb=  0.366 T= -0.391 S2Ext=  0.321 S2=  1.078
 ExtSpn:  IState=    19 X2= 1.002 Y2= 0.002 X2-Y2-1= 1.78D-15
          S2Grnd=  0.757 Ra=  0.163 Rb=  0.249 T= -0.226 S2Ext=  0.186 S2=  0.943
 ExtSpn:  IState=    20 X2= 1.002 Y2= 0.002 X2-Y2-1= 8.88D-16
          S2Grnd=  0.757 Ra=  0.210 Rb=  0.732 T=  0.421 S2Ext=  1.363 S2=  2.120
 ExtSpn:  IState=    21 X2= 1.004 Y2= 0.004 X2-Y2-1= 0.00D+00
          S2Grnd=  0.757 Ra=  0.529 Rb=  0.255 T=  0.359 S2Ext=  1.143 S2=  1.900
 ExtSpn:  IState=    22 X2= 1.002 Y2= 0.002 X2-Y2-1=-1.11D-16
          S2Grnd=  0.757 Ra=  0.390 Rb=  0.562 T=  0.693 S2Ext=  1.645 S2=  2.402
 ExtSpn:  IState=    23 X2= 1.002 Y2= 0.002 X2-Y2-1= 6.66D-16
          S2Grnd=  0.757 Ra=  0.592 Rb=  0.374 T= -0.520 S2Ext=  0.447 S2=  1.204
 ExtSpn:  IState=    24 X2= 1.004 Y2= 0.004 X2-Y2-1= 2.22D-16
          S2Grnd=  0.757 Ra=  0.459 Rb=  0.514 T=  0.547 S2Ext=  1.520 S2=  2.277
 ExtSpn:  IState=    25 X2= 1.004 Y2= 0.004 X2-Y2-1= 2.22D-16
          S2Grnd=  0.757 Ra=  0.463 Rb=  0.504 T=  0.508 S2Ext=  1.475 S2=  2.232
 Ground to excited state transition densities written to RWF  633
 Ground to excited state transition electric dipole moments (Au):
       state          X           Y           Z        Dip. S.      Osc.
         1         0.0301     -0.0188     -0.0306      0.0022      0.0000
         2         0.0314     -0.0631     -0.0719      0.0101      0.0004
         3         0.2224     -0.0643      0.0008      0.0536      0.0029
         4         0.0703     -0.0365     -0.0359      0.0076      0.0005
         5        -0.0586     -0.0006     -0.2431      0.0625      0.0043
         6        -0.0172     -0.0257      0.0289      0.0018      0.0001
         7         0.3581      0.0303      0.0782      0.1353      0.0107
         8         0.2310     -0.2834     -0.0337      0.1348      0.0107
         9         0.0236     -0.1972     -0.2374      0.0958      0.0077
        10        -0.0301     -0.0579     -0.3344      0.1161      0.0094
        11        -0.0297     -0.1182     -0.0798      0.0212      0.0018
        12         0.1796     -0.4504      0.2818      0.3145      0.0279
        13        -0.0021      0.0218     -0.0022      0.0005      0.0000
        14        -0.0163     -0.0837      0.0518      0.0100      0.0009
        15         0.0231     -0.0979      0.0597      0.0137      0.0013
        16        -0.0152      0.1095     -0.0374      0.0136      0.0013
        17         0.0248     -0.1989      0.0963      0.0494      0.0047
        18         0.0956     -0.2033     -0.0114      0.0506      0.0048
        19         0.1122      0.0262     -0.0031      0.0133      0.0013
        20        -0.0204      0.0431      0.1114      0.0147      0.0014
        21         0.1309     -0.0019     -0.1816      0.0501      0.0050
        22        -0.0582      0.0433     -0.0185      0.0056      0.0006
        23        -0.2127      0.1055     -0.0122      0.0565      0.0057
        24        -0.0199      0.0119      0.0120      0.0007      0.0001
        25         0.0289     -0.0647      0.0781      0.0111      0.0011
 Ground to excited state transition velocity dipole moments (Au):
       state          X           Y           Z        Dip. S.      Osc.
         1        -0.0014      0.0000      0.0014      0.0000      0.0002
         2        -0.0030      0.0123      0.0038      0.0002      0.0020
         3        -0.0205      0.0057      0.0003      0.0005      0.0037
         4        -0.0051      0.0057      0.0030      0.0001      0.0005
         5         0.0057     -0.0015      0.0202      0.0004      0.0029
         6         0.0008      0.0020     -0.0028      0.0000      0.0001
         7        -0.0272     -0.0046     -0.0089      0.0008      0.0047
         8        -0.0191      0.0271      0.0036      0.0011      0.0062
         9         0.0007      0.0199      0.0225      0.0009      0.0050
        10         0.0063      0.0065      0.0329      0.0012      0.0064
        11         0.0036      0.0126      0.0082      0.0002      0.0012
        12        -0.0210      0.0495     -0.0330      0.0040      0.0199
        13        -0.0001     -0.0024      0.0002      0.0000      0.0000
        14         0.0023      0.0090     -0.0060      0.0001      0.0006
        15        -0.0023      0.0107     -0.0093      0.0002      0.0010
        16         0.0050     -0.0174     -0.0009      0.0003      0.0016
        17        -0.0038      0.0262     -0.0128      0.0009      0.0040
        18        -0.0083      0.0208      0.0052      0.0005      0.0025
        19        -0.0155     -0.0031      0.0026      0.0003      0.0012
        20        -0.0023     -0.0059     -0.0120      0.0002      0.0008
        21        -0.0128      0.0009      0.0216      0.0006      0.0028
        22         0.0131     -0.0072      0.0000      0.0002      0.0010
        23         0.0366     -0.0144     -0.0015      0.0015      0.0068
        24         0.0053      0.0003     -0.0033      0.0000      0.0002
        25        -0.0083      0.0055     -0.0086      0.0002      0.0008
 Ground to excited state transition magnetic dipole moments (Au):
       state          X           Y           Z
         1        -0.0963      0.0377     -0.7389
         2         0.1280     -0.0255      0.2209
         3         0.2912      0.9949      0.0045
         4         0.0203      0.0207      0.1360
         5        -0.0141      0.1416     -0.1265
         6         0.0023      0.0130     -0.0954
         7        -0.0791     -0.2033      0.9265
         8        -0.0182      0.2386      0.5948
         9        -0.1196     -0.1053      0.1742
        10        -0.0988     -0.1060      0.1793
        11        -0.0565     -0.0543      0.0563
        12        -0.0999     -0.0670     -0.1684
        13         0.0278     -0.0251      0.0282
        14        -0.0721      0.0299      0.0218
        15        -0.0292     -0.0374     -0.0157
        16         0.0175     -0.0796      0.0559
        17         0.0433      0.0086     -0.0969
        18        -0.4119     -0.1576     -0.0205
        19         0.1396     -0.0124     -0.0391
        20         0.0769      0.2064      0.1659
        21        -0.0506     -0.3327      0.0337
        22         0.1480     -0.0871      0.1703
        23         0.2741     -0.1257      0.2580
        24         0.1000     -0.0856      0.2782
        25         0.0319      0.0576      0.2594
 Ground to excited state transition velocity quadrupole moments (Au):
       state          XX          YY          ZZ          XY          XZ          YZ
         1         0.0100      0.0002     -0.0083      0.0049      0.0004      0.0010
         2         0.0468     -0.0159     -0.0064     -0.0194     -0.0181     -0.0015
         3         0.0339     -0.0263     -0.0142      0.0276      0.0451     -0.0171
         4         0.0227     -0.0036     -0.0057     -0.0057      0.0016     -0.0055
         5        -0.0060      0.0278     -0.0112      0.0127     -0.0078     -0.0359
         6        -0.0049      0.0234     -0.0053     -0.0064     -0.0009      0.0031
         7         0.0218     -0.1010      0.0079     -0.0002      0.0603      0.0153
         8        -0.0139      0.0990     -0.0298     -0.0752      0.0117     -0.0286
         9        -0.0041      0.1058     -0.0346     -0.0347     -0.0086     -0.0569
        10        -0.0005      0.0257     -0.0023      0.0027     -0.0251     -0.0616
        11        -0.0164      0.0690     -0.0140     -0.0261     -0.0108     -0.0257
        12         0.0001      0.2883     -0.0996     -0.1325      0.0445      0.0026
        13         0.0029     -0.0025     -0.0034     -0.0011     -0.0001      0.0028
        14         0.0012      0.0490     -0.0158     -0.0277     -0.0021      0.0008
        15        -0.0030      0.0684     -0.0198     -0.0553      0.0061      0.0094
        16         0.0108     -0.0777      0.0249     -0.0205     -0.0161      0.0325
        17        -0.0603      0.1617     -0.0362     -0.0739      0.0218     -0.0096
        18         0.1229      0.0550     -0.0510      0.0020     -0.0139     -0.0393
        19         0.0931      0.0275     -0.0360      0.0196     -0.0319     -0.0052
        20         0.0057     -0.0083     -0.0062     -0.0292      0.0057      0.0444
        21         0.0407      0.0208     -0.0084      0.0170      0.0192     -0.0335
        22        -0.0541     -0.0121      0.0141     -0.0472      0.0073      0.0217
        23        -0.0432     -0.0732      0.0359     -0.0822     -0.0312      0.0590
        24        -0.0041     -0.0078      0.0035     -0.0791     -0.0013      0.0354
        25         0.0272      0.0593     -0.0259     -0.0744      0.0012      0.0392
 <0|del|b> * <b|rxdel|0> + <0|del|b> * <b|delr+rdel|0>
 Rotatory Strengths (R) in cgs (10**-40 erg-esu-cm/Gauss)
       state          XX          YY          ZZ    R(velocity)    E-M Angle
         1       -20.5124    -18.0381      2.8675    -11.8943      126.27
         2         4.0172      3.1862     -5.5710      0.5442       87.72
         3        23.6942    -24.3726     -1.4735     -0.7173       90.64
         4         1.7922      1.2555     -0.0152      1.0108       68.30
         5        -8.7020    -10.6545     -0.2813     -6.5459      135.43
         6         0.9697      0.7869      0.0710      0.6092       29.50
         7       -20.9106    -19.3546      9.5877    -10.2259      100.77
         8        23.7394      9.8058     19.4777     17.6743       65.22
         9         3.5407     13.3245     -6.7363      3.3763       75.81
        10        15.8292     13.9113     -3.1613      8.8597       54.36
        11        -0.8318      1.0561     -2.5841     -0.7866      106.57
        12        11.7017      8.5666      2.7663      7.6782       70.57
        13         0.1747      0.0057      0.1518      0.1107       90.00
        14         0.8318     -1.1797      0.2192     -0.0429       90.00
        15         0.4990     -0.8171     -0.6184     -0.3122      104.97
        16         2.6818      0.4508      3.9712      2.3679       37.54
        17         4.5797      0.4147      1.4867      2.1604       65.42
        18        -7.6356      8.9555     -1.1930      0.0423       90.00
        19        -0.2695     -5.4454     -5.1352     -3.6167      162.76
[...]
 Alpha virt. eigenvalues --    1.84511   1.84913   1.85119   1.86394   1.86969
 Alpha virt. eigenvalues --    1.87624   1.88085   1.88624   1.89206   1.89815
 Alpha virt. eigenvalues --    1.90424   1.90651   1.91039   1.91886   1.92441
 Alpha virt. eigenvalues --    1.93338   1.93801   1.95154   1.96344   1.96679
 Alpha virt. eigenvalues --    1.97678   1.98422   1.98795   1.99812   2.00336
 Alpha virt. eigenvalues --    2.00782   2.01998   2.02375   2.02543   2.03597
 Alpha virt. eigenvalues --    2.03895   2.04894   2.05531   2.05591   2.05907
 Alpha virt. eigenvalues --    2.07365   2.07884   2.08103   2.08791   2.09030
 Alpha virt. eigenvalues --    2.10345   2.10500   2.11709   2.11945   2.12509
 Alpha virt. eigenvalues --    2.13462   2.14277   2.15641   2.15990   2.18682
 Alpha virt. eigenvalues --    2.19001   2.20326   2.21071   2.21921   2.22706
 Alpha virt. eigenvalues --    2.23963   2.25460   2.25798   2.26017   2.26425
 Alpha virt. eigenvalues --    2.26812   2.27247   2.27819   2.28943   2.29702
 Alpha virt. eigenvalues --    2.30646   2.31627   2.32462   2.33781   2.35058
 Alpha virt. eigenvalues --    2.39794   2.40295   2.41578   2.42101   2.42509
 Alpha virt. eigenvalues --    2.42611   2.43091   2.43351   2.43575   2.44436
 Alpha virt. eigenvalues --    2.45505   2.45772   2.46370   2.47208   2.48069
 Alpha virt. eigenvalues --    2.48586   2.49616   2.49847   2.50282   2.50593
 Alpha virt. eigenvalues --    2.51102   2.52237   2.52562   2.53194   2.53969
 Alpha virt. eigenvalues --    2.54778   2.55281   2.55848   2.56137   2.56504
 Alpha virt. eigenvalues --    2.57256   2.58168   2.58634   2.59243   2.59562
 Alpha virt. eigenvalues --    2.61136   2.61420   2.62481   2.63577   2.63638
 Alpha virt. eigenvalues --    2.65489   2.66210   2.67834   2.68345   2.69599
 Alpha virt. eigenvalues --    2.70664   2.70862   2.72606   2.72864   2.75030
 Alpha virt. eigenvalues --    2.75430   2.76503   2.78231   2.79974   2.81581
 Alpha virt. eigenvalues --    2.81697   2.82433   2.84505   2.85055   2.86395
 Alpha virt. eigenvalues --    2.87094   2.92685   2.95593   3.00482   3.03226
 Alpha virt. eigenvalues --    3.04186   3.11090   3.12283   3.14693   3.50653
 Alpha virt. eigenvalues --    3.56965   3.81986  34.84983  34.99430  35.07552
 Alpha virt. eigenvalues --   46.01566
  Beta  occ. eigenvalues --  -77.25572 -19.27092 -19.16698 -19.15257 -14.44377
  Beta  occ. eigenvalues --  -14.43705 -10.32425 -10.29686 -10.29246 -10.26921
  Beta  occ. eigenvalues --  -10.25945 -10.25645 -10.25458 -10.25428 -10.25204
  Beta  occ. eigenvalues --  -10.24977 -10.24908 -10.24444 -10.21929 -10.21917
  Beta  occ. eigenvalues --  -10.21862 -10.21827 -10.21758 -10.21657 -10.20798
  Beta  occ. eigenvalues --  -10.20752  -6.63558  -4.77194  -4.77107  -4.76892
  Beta  occ. eigenvalues --   -3.04603  -1.88584  -1.87140  -1.87022  -1.13476
  Beta  occ. eigenvalues --   -1.01047  -0.96940  -0.92683  -0.85480  -0.84080
  Beta  occ. eigenvalues --   -0.83678  -0.83372  -0.82597  -0.77693  -0.77189
  Beta  occ. eigenvalues --   -0.74234  -0.70559  -0.70421  -0.70130  -0.69622
  Beta  occ. eigenvalues --   -0.69082  -0.66182  -0.66018  -0.63316  -0.62186
  Beta  occ. eigenvalues --   -0.57594  -0.57322  -0.56115  -0.53423  -0.53124
  Beta  occ. eigenvalues --   -0.51991  -0.51152  -0.50178  -0.48340  -0.47685
  Beta  occ. eigenvalues --   -0.46714  -0.46117  -0.45868  -0.45720  -0.45247
  Beta  occ. eigenvalues --   -0.45068  -0.44511  -0.44264  -0.43999  -0.43431
  Beta  occ. eigenvalues --   -0.43321  -0.42668  -0.42110  -0.41679  -0.41443
  Beta  occ. eigenvalues --   -0.40844  -0.39957  -0.39278  -0.38869  -0.38583
  Beta  occ. eigenvalues --   -0.38339  -0.38079  -0.37870  -0.36941  -0.36598
  Beta  occ. eigenvalues --   -0.36302  -0.36075  -0.35758  -0.35168  -0.34644
  Beta  occ. eigenvalues --   -0.34258  -0.34070  -0.33542  -0.33093  -0.32742
  Beta  occ. eigenvalues --   -0.32513  -0.31799  -0.30058  -0.29622  -0.28421
  Beta  occ. eigenvalues --   -0.27788  -0.27712  -0.26723  -0.26439  -0.25095
  Beta  occ. eigenvalues --   -0.20343  -0.19378
  Beta virt. eigenvalues --   -0.07745  -0.03828  -0.01912   0.00366   0.00922
  Beta virt. eigenvalues --    0.01857   0.02593   0.03457   0.03760   0.03900
  Beta virt. eigenvalues --    0.05958   0.06822   0.09006   0.09267   0.09661
  Beta virt. eigenvalues --    0.09763   0.10364   0.10953   0.11415   0.11704
  Beta virt. eigenvalues --    0.11963   0.12299   0.12652   0.13324   0.13678
  Beta virt. eigenvalues --    0.13831   0.14302   0.14559   0.14847   0.15044
  Beta virt. eigenvalues --    0.15637   0.15781   0.16049   0.16742   0.16896
  Beta virt. eigenvalues --    0.17462   0.17979   0.18180   0.18579   0.18690
  Beta virt. eigenvalues --    0.18853   0.19270   0.19835   0.20410   0.20776
  Beta virt. eigenvalues --    0.20905   0.20982   0.21222   0.21693   0.22012
  Beta virt. eigenvalues --    0.22113   0.22665   0.22708   0.23145   0.23335
  Beta virt. eigenvalues --    0.23676   0.24177   0.24970   0.25343   0.25584
  Beta virt. eigenvalues --    0.26134   0.26494   0.28007   0.28285   0.28557
  Beta virt. eigenvalues --    0.28914   0.29763   0.30338   0.31164   0.32356
  Beta virt. eigenvalues --    0.32563   0.32852   0.33549   0.34955   0.35399
  Beta virt. eigenvalues --    0.36902   0.38183   0.39031   0.40530   0.41965
  Beta virt. eigenvalues --    0.42467   0.42796   0.43619   0.44159   0.44642
  Beta virt. eigenvalues --    0.45398   0.45863   0.47000   0.47380   0.47766
  Beta virt. eigenvalues --    0.49012   0.49564   0.50084   0.50242   0.50724
  Beta virt. eigenvalues --    0.51398   0.51782   0.52850   0.52985   0.54086
  Beta virt. eigenvalues --    0.54335   0.54731   0.55446   0.55955   0.56688
  Beta virt. eigenvalues --    0.56842   0.58334   0.58558   0.59209   0.59749
  Beta virt. eigenvalues --    0.60039   0.60614   0.61273   0.61618   0.61712
  Beta virt. eigenvalues --    0.62543   0.62924   0.63150   0.63376   0.63681
  Beta virt. eigenvalues --    0.64255   0.64660   0.65097   0.65282   0.65379
  Beta virt. eigenvalues --    0.65598   0.65925   0.66328   0.66852   0.67047
  Beta virt. eigenvalues --    0.67272   0.67507   0.67769   0.67884   0.68118
  Beta virt. eigenvalues --    0.68876   0.69108   0.69482   0.69769   0.70005
  Beta virt. eigenvalues --    0.70176   0.70392   0.71667   0.71896   0.72314
  Beta virt. eigenvalues --    0.73028   0.73353   0.73522   0.73703   0.74017
  Beta virt. eigenvalues --    0.74444   0.75110   0.75712   0.75839   0.76023
  Beta virt. eigenvalues --    0.76669   0.77017   0.77254   0.78119   0.78320
  Beta virt. eigenvalues --    0.79171   0.79596   0.79682   0.80349   0.80839
  Beta virt. eigenvalues --    0.81226   0.82484   0.83366   0.83616   0.84196
  Beta virt. eigenvalues --    0.84273   0.84963   0.85385   0.86354   0.86843
  Beta virt. eigenvalues --    0.87785   0.88492   0.88694   0.89911   0.89930
  Beta virt. eigenvalues --    0.90587   0.91430   0.91594   0.92125   0.92442
  Beta virt. eigenvalues --    0.93643   0.94481   0.95048   0.95563   0.96080
  Beta virt. eigenvalues --    0.97398   0.97438   0.97991   0.98941   0.99556
  Beta virt. eigenvalues --    1.00650   1.00758   1.01738   1.02775   1.03151
  Beta virt. eigenvalues --    1.04651   1.05260   1.05927   1.06585   1.07086
  Beta virt. eigenvalues --    1.08941   1.09827   1.10735   1.12463   1.12981
  Beta virt. eigenvalues --    1.14858   1.15233   1.15366   1.16229   1.17008
  Beta virt. eigenvalues --    1.17497   1.19629   1.20285   1.20891   1.22111
  Beta virt. eigenvalues --    1.22840   1.24412   1.25436   1.26364   1.27002
  Beta virt. eigenvalues --    1.27651   1.28466   1.29007   1.29974   1.30337
  Beta virt. eigenvalues --    1.31488   1.32785   1.33292   1.33758   1.34307
  Beta virt. eigenvalues --    1.34859   1.35127   1.36181   1.36966   1.37453
  Beta virt. eigenvalues --    1.38564   1.38995   1.39808   1.39943   1.40697
  Beta virt. eigenvalues --    1.41252   1.42720   1.42999   1.43706   1.43902
  Beta virt. eigenvalues --    1.44671   1.44969   1.45402   1.45804   1.46025
  Beta virt. eigenvalues --    1.46890   1.47244   1.47619   1.48688   1.48785
  Beta virt. eigenvalues --    1.49544   1.49656   1.50645   1.50692   1.52034
  Beta virt. eigenvalues --    1.52499   1.52980   1.53906   1.54342   1.54862
  Beta virt. eigenvalues --    1.55370   1.55803   1.56683   1.57183   1.58501
  Beta virt. eigenvalues --    1.59143   1.59602   1.61067   1.61247   1.61865
  Beta virt. eigenvalues --    1.62632   1.62724   1.63793   1.64221   1.64999
  Beta virt. eigenvalues --    1.65375   1.66483   1.66871   1.67576   1.67688
  Beta virt. eigenvalues --    1.68116   1.68334   1.69367   1.69533   1.70002
  Beta virt. eigenvalues --    1.70124   1.70520   1.70765   1.71178   1.71583
  Beta virt. eigenvalues --    1.72180   1.72675   1.72939   1.73678   1.73895
  Beta virt. eigenvalues --    1.74583   1.74916   1.75525   1.75594   1.76152
  Beta virt. eigenvalues --    1.76773   1.77155   1.77432   1.77631   1.78135
  Beta virt. eigenvalues --    1.78226   1.78917   1.79615   1.79948   1.80601
  Beta virt. eigenvalues --    1.81331   1.81599   1.82336   1.82749   1.83488
  Beta virt. eigenvalues --    1.83726   1.84576   1.84947   1.85230   1.86489
  Beta virt. eigenvalues --    1.86985   1.87650   1.88117   1.88638   1.89270
  Beta virt. eigenvalues --    1.89843   1.90467   1.90687   1.91073   1.91927
  Beta virt. eigenvalues --    1.92500   1.93376   1.93927   1.95189   1.96377
  Beta virt. eigenvalues --    1.96709   1.97714   1.98459   1.98826   1.99830
  Beta virt. eigenvalues --    2.00377   2.00791   2.02013   2.02395   2.02563
  Beta virt. eigenvalues --    2.03655   2.03927   2.04916   2.05565   2.05715
  Beta virt. eigenvalues --    2.05944   2.07455   2.07912   2.08151   2.08823
  Beta virt. eigenvalues --    2.09058   2.10393   2.10532   2.11756   2.11966
  Beta virt. eigenvalues --    2.12610   2.13578   2.14308   2.15762   2.16061
  Beta virt. eigenvalues --    2.18708   2.19186   2.20441   2.21146   2.22070
  Beta virt. eigenvalues --    2.22780   2.24127   2.25499   2.25895   2.26085
  Beta virt. eigenvalues --    2.26442   2.26913   2.27320   2.27845   2.29034
  Beta virt. eigenvalues --    2.29865   2.30683   2.31662   2.32528   2.33868
  Beta virt. eigenvalues --    2.35247   2.39838   2.40492   2.41616   2.42119
  Beta virt. eigenvalues --    2.42527   2.42671   2.43115   2.43384   2.43657
  Beta virt. eigenvalues --    2.44450   2.45613   2.45943   2.46506   2.47248
  Beta virt. eigenvalues --    2.48143   2.48616   2.49709   2.49938   2.50313
  Beta virt. eigenvalues --    2.50686   2.51186   2.52327   2.52631   2.53233
  Beta virt. eigenvalues --    2.54115   2.54808   2.55303   2.55948   2.56301
  Beta virt. eigenvalues --    2.56632   2.57324   2.58200   2.58748   2.59281
  Beta virt. eigenvalues --    2.59633   2.61188   2.61507   2.62609   2.63757
  Beta virt. eigenvalues --    2.63830   2.65663   2.66708   2.68446   2.68939
  Beta virt. eigenvalues --    2.69902   2.71061   2.71350   2.72853   2.73978
  Beta virt. eigenvalues --    2.75422   2.77121   2.78151   2.79027   2.81512
  Beta virt. eigenvalues --    2.82173   2.82586   2.84452   2.85113   2.85979
  Beta virt. eigenvalues --    2.87518   2.91711   2.92863   2.96693   3.00658
  Beta virt. eigenvalues --    3.03356   3.04597   3.11411   3.12640   3.16137
  Beta virt. eigenvalues --    3.50656   3.57061   3.81984  34.85043  34.99540
  Beta virt. eigenvalues --   35.07664  46.01648
          Condensed to atoms (all electrons):
          Atomic-Atomic Spin Densities.
 Mulliken charges and spin densities:
               1          2
     1  N   -0.311000   0.002349
     2  C    0.041594  -0.002079
     3  C    0.070075  -0.001704
     4  C   -0.047817   0.001821
     5  C    0.082206  -0.002025
     6  C   -0.043215   0.001514
     7  C    0.121166   0.000273
     8  H    0.036776  -0.000085
     9  H    0.048498   0.000095
    10  H    0.036343  -0.000018
    11  C   -0.077078   0.000268
    12  N   -0.384944   0.014903
    13  H    0.076446  -0.000281
    14  H    0.118086   0.000014
    15  H    0.135561   0.000078
    16  P    0.227274   0.000173
    17  H    0.093835  -0.000730
    18  Ru   0.010417   0.022901
    19  C   -0.037177   0.010044
    20  C   -0.462548  -0.000195
    21  C    0.000220  -0.001062
    22  C   -0.455953  -0.000772
    23  C   -0.016726   0.009030
    24  C   -0.019304   0.000379
    25  C   -0.001080   0.000275
    26  C   -0.024940  -0.000073
    27  C   -0.000899  -0.000020
    28  C   -0.018650  -0.000072
    29  C    0.003954   0.013810
    30  O   -0.160144   0.023631
    31  H    0.108274   0.000611
    32  C   -0.074470  -0.000095
    33  H    0.106089   0.000027
    34  H    0.081416   0.000376
    35  C   -0.123318   0.000093
    36  H    0.051593   0.000381
    37  O   -0.474866   0.000696
    38  H    0.183716  -0.000806
    39  O   -0.440071   0.898289
    40  H    0.100296   0.000275
    41  H    0.058005  -0.000032
    42  H    0.056954  -0.000016
    43  H    0.063649   0.000707
    44  H    0.063833   0.000224
    45  H    0.064289   0.000894
    46  H    0.042151   0.005234
    47  H    0.069542   0.000258
    48  H    0.102912   0.000924
    49  H    0.051565   0.000028
    50  H    0.077617  -0.000084
    51  H    0.066990   0.000076
    52  H    0.048346  -0.000065
    53  H    0.046676  -0.000050
    54  H    0.057183   0.000021
    55  H    0.066113   0.000012
    56  H    0.049997  -0.000038
    57  H    0.059921  -0.000003
    58  H    0.050563   0.000034
    59  H    0.080370  -0.000181
    60  H    0.050925   0.000026
    61  H    0.052970  -0.000031
    62  H    0.095256  -0.000241
    63  H    0.064538   0.000018
 Sum of Mulliken charges =  -0.00000   1.00000
 Mulliken charges and spin densities with hydrogens summed into heavy atoms:
               1          2
     1  N   -0.311000   0.002349
     2  C    0.041594  -0.002079
     3  C    0.070075  -0.001704
     4  C   -0.011040   0.001735
     5  C    0.130704  -0.001929
     6  C   -0.006872   0.001496
     7  C    0.315698   0.000006
    11  C    0.152318  -0.000384
    12  N   -0.384944   0.014903
    16  P    0.227274   0.000173
    18  Ru   0.010417   0.022901
    19  C    0.177186   0.010682
    20  C   -0.462548  -0.000195
    21  C    0.133229  -0.000305
    22  C   -0.455953  -0.000772
    23  C    0.197879   0.015446
    24  C    0.176867   0.000398
    25  C    0.151125   0.000180
    26  C    0.187824  -0.000327
    27  C    0.175131  -0.000049
    28  C    0.163209  -0.000194
    29  C    0.003954   0.013810
    30  O   -0.160144   0.023631
    32  C    0.117301   0.001729
    35  C    0.091936   0.000320
    37  O   -0.291150  -0.000109
    39  O   -0.440071   0.898289
 Electronic spatial extent (au):  <R**2>=           9603.2422
 Charge=             -0.0000 electrons
 Dipole moment (field-independent basis, Debye):
    X=              0.5752    Y=             11.8284    Z=              2.9008  Tot=             12.1925
 Quadrupole moment (field-independent basis, Debye-Ang):
   XX=           -145.4575   YY=           -178.4282   ZZ=           -198.8977
   XY=             -6.9529   XZ=             -5.3872   YZ=             -9.0978
 Traceless Quadrupole moment (field-independent basis, Debye-Ang):
   XX=             28.8036   YY=             -4.1670   ZZ=            -24.6366
   XY=             -6.9529   XZ=             -5.3872   YZ=             -9.0978
 Octapole moment (field-independent basis, Debye-Ang**2):
  XXX=            -66.5449  YYY=             98.4352  ZZZ=              3.6200  XYY=            -22.1856
  XXY=              8.0828  XXZ=              9.6246  XZZ=              7.4549  YZZ=              0.3902
  YYZ=              2.4766  XYZ=              0.8022
 Hexadecapole moment (field-independent basis, Debye-Ang**3):
 XXXX=          -6639.7967 YYYY=          -3292.1561 ZZZZ=          -2401.5576 XXXY=            -42.2828
 XXXZ=            -16.0002 YYYX=           -117.9306 YYYZ=           -163.5389 ZZZX=              1.3564
 ZZZY=              5.4035 XXYY=          -1652.2214 XXZZ=          -1492.3954 YYZZ=           -982.1485
 XXYZ=             23.7832 YYXZ=            -30.9878 ZZXY=             18.9142
 N-N= 3.470735478408D+03 E-N=-1.055589503076D+04  KE= 1.484652094485D+03
 1\1\GINC-NODE062\SP\UPBE1PBE TD-FC\GenECP\C20H36N2O3P1Ru1(2)\JS1212\20
 -Aug-2020\0\\# genecp pbe1pbe EmpiricalDispersion=GD3BJ scrf=(SMD,solv
 ent=water) td=nstates=25 geom=allcheck\\Title Card Required\\0,2\N,0,-
 0.6998958364,1.5644445757,-0.1061138388\C,0,-1.9159571154,2.0573717929
 ,0.1880522068\C,0,0.2390194965,2.3296952179,-0.6974839796\C,0,-2.22632
 9357,3.391103219,-0.0435683318\C,0,-1.2475919915,4.2184218503,-0.59090
 18467\C,0,-0.0097304706,3.6825211027,-0.9288469767\C,0,-2.8639961912,1
 .0554500624,0.7809691922\H,0,-3.2199461582,3.7703650669,0.1974516284\H
 ,0,-1.4580277673,5.2735193547,-0.7743762735\H,0,0.761617264,4.30054998
 91,-1.3896520666\C,0,1.4988695589,1.6410408876,-1.1267471457\N,0,-2.70
 32783463,-0.2744853742,0.1631801284\H,0,-3.9026258073,1.4229292851,0.7
 089491451\H,0,-2.6334294497,0.9485638118,1.8536986638\H,0,1.3106284122
 ,1.2523263661,-2.1416645673\P,0,1.7939691764,0.0820791572,-0.135678136
 3\H,0,2.3516815107,2.334212279,-1.161962348\Ru,0,-0.3978407495,-0.4569
 584335,0.1582694623\C,0,-3.1922390563,-0.2676004436,-1.2364258273\C,0,
 2.8608570032,-1.0003012924,-1.27132958\C,0,-3.3966827444,-1.2813505403
 ,0.9973562487\C,0,2.7920982199,0.6961351667,1.361744832\C,0,1.90234575
 33,-1.6851076087,-2.2502362543\C,0,3.5309028753,-2.0930309488,-0.43627
 83258\C,0,3.9050898529,-0.2073033075,-2.0589234262\C,0,2.0184085076,1.
 87208216,1.9694894\C,0,4.1917468961,1.1859976013,0.9893005891\C,0,2.90
 40594972,-0.4102166904,2.4142335222\C,0,-0.4236999359,-0.5058414437,2.
 0147016436\O,0,-0.5136365481,-0.5720747729,3.1745474139\H,0,-2.6432463
 728,0.52986907,-1.7580263592\C,0,-4.6906464143,-0.0901341327,-1.422975
 7117\H,0,-2.8359660342,-1.195899154,-1.6981029053\H,0,-2.9105354678,-1
 .253024173,1.9839367366\C,0,-3.313231203,-2.6819627387,0.4283375594\H,
 0,-4.4488549577,-0.9690530446,1.1524110214\O,0,-0.2226221061,-2.513541
 489,0.0389686894\H,0,0.0892291076,-2.8654306649,0.8815500223\O,0,-0.52
 53059974,-0.4584224572,-1.819979225\H,0,-2.2621228926,-2.9131661296,0.
 176755085\H,0,-3.939963231,-2.8054596858,-0.4675709402\H,0,-3.67448996
 97,-3.3967587228,1.183092798\H,0,-4.9081023083,-0.0682878969,-2.501312
 2972\H,0,-5.0716716765,0.8526005795,-0.9996457671\H,0,-5.2721010067,-0
 .9172260099,-0.9895109797\H,0,2.4957350085,-2.3496663917,-2.9016761479
 \H,0,1.3694859576,-0.9638343787,-2.8867328769\H,0,1.1447148283,-2.2735
 206346,-1.7085007852\H,0,3.9886493537,-2.8255214835,-1.1212952632\H,0,
 2.7899696457,-2.6305647607,0.1742497865\H,0,4.3295956297,-1.7095501178
 ,0.2144951857\H,0,4.4472382468,-0.906054818,-2.7179241275\H,0,4.649448
 0846,0.2918257347,-1.4256637201\H,0,3.4399596191,0.5474525623,-2.71025
 51982\H,0,4.8484905424,0.3674231975,0.6658604121\H,0,4.6557457203,1.64
 67213871,1.877499526\H,0,4.1738668973,1.9502730259,0.1974935446\H,0,3.
 4877103031,-1.2687332178,2.0610676985\H,0,1.920530159,-0.7731796712,2.
 734958509\H,0,3.4139973274,-0.0032795689,3.3035148058\H,0,2.5142289316
 ,2.1746266114,2.9063823431\H,0,0.9799110177,1.6064712789,2.2086470942\
 H,0,2.0076367583,2.749649804,1.3060863353\\Version=ES64L-G16RevA.03\St
 ate=2-A\HF=-1554.0237842\S2=0.757109\S2-1=0.\S2A=0.750037\RMSD=3.919e-
 09\PG=C01 [X(C20H36N2O3P1Ru1)]\\@


  THE LARGE PRINT GIVETH,
  AND THE SMALL PRINT TAKETH AWAY.

                     -- TOM WAITS
 Job cpu time:       1 days 14 hours 48 minutes 34.4 seconds.
 Elapsed time:       0 days  2 hours 25 minutes 47.3 seconds.
 File lengths (MBytes):  RWF=   4625 Int=      0 D2E=      0 Chk=    351 Scr=      1
 Normal termination of Gaussian 16 at Thu Aug 20 16:33:45 2020.
