 Entering Gaussian System, Link 0=g16
 Initial command:
 /cluster/chemistry/gaussian/g16/l1.exe "/scratch/js1212.573986/scratch/Gau-987.inp" -scrdir="/scratch/js1212.573986/scratch/"
 Entering Link 1 = /cluster/chemistry/gaussian/g16/l1.exe PID=       989.
  
 Copyright (c) 1988,1990,1992,1993,1995,1998,2003,2009,2016,
            Gaussian, Inc.  All Rights Reserved.
  
 This is part of the Gaussian(R) 16 program.  It is based on
 the Gaussian(R) 09 system (copyright 2009, Gaussian, Inc.),
 the Gaussian(R) 03 system (copyright 2003, Gaussian, Inc.),
 the Gaussian(R) 98 system (copyright 1998, Gaussian, Inc.),
 the Gaussian(R) 94 system (copyright 1995, Gaussian, Inc.),
 the Gaussian 92(TM) system (copyright 1992, Gaussian, Inc.),
 the Gaussian 90(TM) system (copyright 1990, Gaussian, Inc.),
 the Gaussian 88(TM) system (copyright 1988, Gaussian, Inc.),
 the Gaussian 86(TM) system (copyright 1986, Carnegie Mellon
 University), and the Gaussian 82(TM) system (copyright 1983,
 Carnegie Mellon University). Gaussian is a federally registered
 trademark of Gaussian, Inc.
  
 This software contains proprietary and confidential information,
 including trade secrets, belonging to Gaussian, Inc.
  
 This software is provided under written license and may be
 used, copied, transmitted, or stored only in accord with that
 written license.
  
 The following legend is applicable only to US Government
 contracts under FAR:
  
                    RESTRICTED RIGHTS LEGEND
  
 Use, reproduction and disclosure by the US Government is
 subject to restrictions as set forth in subparagraphs (a)
 and (c) of the Commercial Computer Software - Restricted
 Rights clause in FAR 52.227-19.
  
 Gaussian, Inc.
 340 Quinnipiac St., Bldg. 40, Wallingford CT 06492
  
  
 ---------------------------------------------------------------
 Warning -- This program may not be used in any manner that
 competes with the business of Gaussian, Inc. or will provide
 assistance to any competitor of Gaussian, Inc.  The licensee
 of this program is prohibited from giving any competitor of
 Gaussian, Inc. access to this program.  By using this program,
 the user acknowledges that Gaussian, Inc. is engaged in the
 business of creating and licensing software in the field of
 computational chemistry and represents and warrants to the
 licensee that it is not a competitor of Gaussian, Inc. and that
 it will not use this program in any manner prohibited above.
 ---------------------------------------------------------------
  

 Cite this work as:
 Gaussian 16, Revision A.03,
 M. J. Frisch, G. W. Trucks, H. B. Schlegel, G. E. Scuseria, 
 M. A. Robb, J. R. Cheeseman, G. Scalmani, V. Barone, 
 G. A. Petersson, H. Nakatsuji, X. Li, M. Caricato, A. V. Marenich, 
 J. Bloino, B. G. Janesko, R. Gomperts, B. Mennucci, H. P. Hratchian, 
 J. V. Ortiz, A. F. Izmaylov, J. L. Sonnenberg, D. Williams-Young, 
 F. Ding, F. Lipparini, F. Egidi, J. Goings, B. Peng, A. Petrone, 
 T. Henderson, D. Ranasinghe, V. G. Zakrzewski, J. Gao, N. Rega, 
 G. Zheng, W. Liang, M. Hada, M. Ehara, K. Toyota, R. Fukuda, 
 J. Hasegawa, M. Ishida, T. Nakajima, Y. Honda, O. Kitao, H. Nakai, 
 T. Vreven, K. Throssell, J. A. Montgomery, Jr., J. E. Peralta, 
 F. Ogliaro, M. J. Bearpark, J. J. Heyd, E. N. Brothers, K. N. Kudin, 
 V. N. Staroverov, T. A. Keith, R. Kobayashi, J. Normand, 
 K. Raghavachari, A. P. Rendell, J. C. Burant, S. S. Iyengar, 
 J. Tomasi, M. Cossi, J. M. Millam, M. Klene, C. Adamo, R. Cammi, 
 J. W. Ochterski, R. L. Martin, K. Morokuma, O. Farkas, 
 J. B. Foresman, and D. J. Fox, Gaussian, Inc., Wallingford CT, 2016.
 
 ******************************************
 Gaussian 16:  ES64L-G16RevA.03 25-Dec-2016
                13-Feb-2020 
 ******************************************
 %rwf=/scratch/js1212.573986/3-HCis-GPOF-D-0.rwf
 %nosave
 %nprocshared=20
 Will use up to   20 processors via shared memory.
 %mem=3000MB
 %chk=/scratch/js1212.573986/3-HCis-GPOF-D-0.chk
 ---------------------------------------------------
 # opt freq genecp pbe1pbe EmpiricalDispersion=GD3BJ
 ---------------------------------------------------
 1/18=20,19=15,26=3,38=1/1,3;
 2/9=110,12=2,17=6,18=5,40=1/2;
 3/5=7,11=2,16=1,17=8,25=1,30=1,71=1,74=-13,124=41/1,2,3;
 4//1;
 5/5=2,38=5/2;
 6/7=2,8=2,9=2,10=2,28=1/1;
 7//1,2,3,16;
 1/18=20,19=15,26=3/3(2);
 2/9=110/2;
 99//99;
 2/9=110/2;
 3/5=7,6=1,11=2,16=1,17=8,25=1,30=1,71=1,74=-13,82=7,124=41/1,2,3;
 4/5=5,16=3,69=1/1;
 5/5=2,38=5/2;
 7//1,2,3,16;
 1/18=20,19=15,26=3/3(-5);
 2/9=110/2;
 6/7=2,8=2,9=2,10=2,19=2,28=1/1;
 99/9=1/99;
 -------------------
 Title Card Required
 -------------------
 Symbolic Z-matrix:
 Charge =  0 Multiplicity = 2
 N                    -0.72661   1.31314  -0.11194 
 C                    -1.87301   1.90309   0.26966 
 C                     0.21672   2.03177  -0.74668 
 C                    -2.10489   3.25797   0.06476 
 C                    -1.12407   4.0214   -0.56041 
 C                     0.04344   3.39898  -0.97681 
 C                    -2.88967   1.00903   0.91798 
 H                    -3.05001   3.6969    0.38624 
 H                    -1.27659   5.08815  -0.73478 
 H                     0.82838   3.95677  -1.48881 
 C                     1.4383    1.31879  -1.23165 
 N                    -3.01673  -0.23508   0.18346 
 H                    -3.84556   1.55763   1.03123 
 H                    -2.53952   0.76121   1.93464 
 H                     1.12282   0.7608   -2.13407 
 P                     1.97975  -0.05129  -0.10423 
 H                     2.23113   2.03486  -1.48944 
 Ru                   -0.4843   -0.87981   0.08142 
 C                    -3.51334  -0.05162  -1.18386 
 C                     3.20008  -1.0069   -1.20561 
 C                    -3.73825  -1.23806   0.96678 
 C                     2.87611   0.81539   1.33178 
 C                     2.33982  -1.91151  -2.09411 
 C                     4.08448  -1.89943  -0.33454 
 C                     4.06741  -0.11103  -2.09066 
 C                     1.90582   1.85907   1.89577 
 C                     4.18011   1.51099   0.94937 
 C                     3.12408  -0.22646   2.42807 
 C                    -0.47573  -1.01415   1.92181 
 O                    -0.47241  -1.12667   3.08325 
 H                    -2.81549   0.62753  -1.69329 
 C                    -4.94878   0.44012  -1.31084 
 H                    -3.38079  -1.00807  -1.70497 
 H                    -3.20468  -1.32429   1.92696 
 C                    -3.78859  -2.59819   0.29829 
 H                    -4.76439  -0.88862   1.20853 
 O                    -0.37861  -2.83     -0.23093 
 H                    -0.30338  -3.34802   0.58019 
 O                    -0.60658  -0.75649  -1.96094 
 H                    -2.77951  -2.90702  -0.01831 
 H                    -4.4505   -2.60768  -0.58048 
 H                    -4.17947  -3.34018   1.01048 
 H                    -5.20693   0.54271  -2.37569 
 H                    -5.10047   1.42646  -0.84424 
 H                    -5.67215  -0.25885  -0.86284 
 H                     3.00488  -2.48592  -2.76119 
 H                     1.6314   -1.33647  -2.70658 
 H                     1.74034  -2.60875  -1.49063 
 H                     4.64924  -2.58446  -0.98852 
 H                     3.48375  -2.51629   0.35122 
 H                     4.81711  -1.32975   0.25479 
 H                     4.74068  -0.7472   -2.69053 
 H                     4.6944    0.5848   -1.51728 
 H                     3.46052   0.47027  -2.79987 
 H                     4.95689   0.80012   0.63529 
 H                     4.57252   2.06037   1.82284 
 H                     4.0354    2.2439    0.14042 
 H                     3.84765  -0.99415   2.1267 
 H                     2.19006  -0.72928   2.71816 
 H                     3.52738   0.27792   3.32247 
 H                     2.32243   2.25925   2.83514 
 H                     0.92158   1.42398   2.1231 
 H                     1.76      2.7075    1.21182 
 

 GradGradGradGradGradGradGradGradGradGradGradGradGradGradGradGradGradGrad
 Berny optimization.
 Initialization pass.
                           ----------------------------
                           !    Initial Parameters    !
                           ! (Angstroms and Degrees)  !
 --------------------------                            --------------------------
 ! Name  Definition              Value          Derivative Info.                !
 --------------------------------------------------------------------------------
 ! R1    R(1,2)                  1.3446         estimate D2E/DX2                !
 ! R2    R(1,3)                  1.3451         estimate D2E/DX2                !
 ! R3    R(1,18)                 2.2148         estimate D2E/DX2                !
 ! R4    R(2,4)                  1.3898         estimate D2E/DX2                !
 ! R5    R(2,7)                  1.5011         estimate D2E/DX2                !
 ! R6    R(3,6)                  1.3972         estimate D2E/DX2                !
 ! R7    R(3,11)                 1.4953         estimate D2E/DX2                !
 ! R8    R(4,5)                  1.3913         estimate D2E/DX2                !
 ! R9    R(4,8)                  1.0905         estimate D2E/DX2                !
 ! R10   R(5,6)                  1.387          estimate D2E/DX2                !
 ! R11   R(5,9)                  1.0916         estimate D2E/DX2                !
 ! R12   R(6,10)                 1.0906         estimate D2E/DX2                !
 ! R13   R(7,12)                 1.4503         estimate D2E/DX2                !
 ! R14   R(7,13)                 1.1079         estimate D2E/DX2                !
 ! R15   R(7,14)                 1.1035         estimate D2E/DX2                !
 ! R16   R(11,15)                1.1069         estimate D2E/DX2                !
 ! R17   R(11,16)                1.8551         estimate D2E/DX2                !
 ! R18   R(11,17)                1.099          estimate D2E/DX2                !
 ! R19   R(12,19)                1.4662         estimate D2E/DX2                !
 ! R20   R(12,21)                1.4629         estimate D2E/DX2                !
 ! R21   R(16,18)                2.6062         estimate D2E/DX2                !
 ! R22   R(16,20)                1.9014         estimate D2E/DX2                !
 ! R23   R(16,22)                1.9018         estimate D2E/DX2                !
 ! R24   R(18,29)                1.8453         estimate D2E/DX2                !
 ! R25   R(18,37)                1.9779         estimate D2E/DX2                !
 ! R26   R(18,39)                2.0497         estimate D2E/DX2                !
 ! R27   R(19,31)                1.099          estimate D2E/DX2                !
 ! R28   R(19,32)                1.5226         estimate D2E/DX2                !
 ! R29   R(19,33)                1.0972         estimate D2E/DX2                !
 ! R30   R(20,23)                1.5323         estimate D2E/DX2                !
 ! R31   R(20,24)                1.5289         estimate D2E/DX2                !
 ! R32   R(20,25)                1.5291         estimate D2E/DX2                !
 ! R33   R(21,34)                1.1019         estimate D2E/DX2                !
 ! R34   R(21,35)                1.5164         estimate D2E/DX2                !
 ! R35   R(21,36)                1.1106         estimate D2E/DX2                !
 ! R36   R(22,26)                1.5326         estimate D2E/DX2                !
 ! R37   R(22,27)                1.5266         estimate D2E/DX2                !
 ! R38   R(22,28)                1.5326         estimate D2E/DX2                !
 ! R39   R(23,46)                1.1033         estimate D2E/DX2                !
 ! R40   R(23,47)                1.0989         estimate D2E/DX2                !
 ! R41   R(23,48)                1.0999         estimate D2E/DX2                !
 ! R42   R(24,49)                1.1027         estimate D2E/DX2                !
 ! R43   R(24,50)                1.1008         estimate D2E/DX2                !
 ! R44   R(24,51)                1.0994         estimate D2E/DX2                !
 ! R45   R(25,52)                1.1036         estimate D2E/DX2                !
 ! R46   R(25,53)                1.0982         estimate D2E/DX2                !
 ! R47   R(25,54)                1.0996         estimate D2E/DX2                !
 ! R48   R(26,61)                1.1028         estimate D2E/DX2                !
 ! R49   R(26,62)                1.0999         estimate D2E/DX2                !
 ! R50   R(26,63)                1.0995         estimate D2E/DX2                !
 ! R51   R(27,55)                1.0988         estimate D2E/DX2                !
 ! R52   R(27,56)                1.104          estimate D2E/DX2                !
 ! R53   R(27,57)                1.1011         estimate D2E/DX2                !
 ! R54   R(28,58)                1.0971         estimate D2E/DX2                !
 ! R55   R(28,59)                1.0997         estimate D2E/DX2                !
 ! R56   R(28,60)                1.1032         estimate D2E/DX2                !
 ! R57   R(29,30)                1.1669         estimate D2E/DX2                !
 ! R58   R(32,43)                1.1005         estimate D2E/DX2                !
 ! R59   R(32,44)                1.1016         estimate D2E/DX2                !
 ! R60   R(32,45)                1.1011         estimate D2E/DX2                !
 ! R61   R(35,40)                1.1018         estimate D2E/DX2                !
 ! R62   R(35,41)                1.1002         estimate D2E/DX2                !
 ! R63   R(35,42)                1.1003         estimate D2E/DX2                !
 ! R64   R(37,38)                0.9654         estimate D2E/DX2                !
 ! A1    A(2,1,3)              119.8327         estimate D2E/DX2                !
 ! A2    A(2,1,18)             120.1951         estimate D2E/DX2                !
 ! A3    A(3,1,18)             119.5697         estimate D2E/DX2                !
 ! A4    A(1,2,4)              121.8813         estimate D2E/DX2                !
 ! A5    A(1,2,7)              116.0212         estimate D2E/DX2                !
 ! A6    A(4,2,7)              122.0954         estimate D2E/DX2                !
 ! A7    A(1,3,6)              120.9            estimate D2E/DX2                !
 ! A8    A(1,3,11)             118.1164         estimate D2E/DX2                !
 ! A9    A(6,3,11)             120.9628         estimate D2E/DX2                !
 ! A10   A(2,4,5)              118.9191         estimate D2E/DX2                !
 ! A11   A(2,4,8)              119.5726         estimate D2E/DX2                !
 ! A12   A(5,4,8)              121.5055         estimate D2E/DX2                !
 ! A13   A(4,5,6)              118.8201         estimate D2E/DX2                !
 ! A14   A(4,5,9)              120.6307         estimate D2E/DX2                !
 ! A15   A(6,5,9)              120.5421         estimate D2E/DX2                !
 ! A16   A(3,6,5)              119.6066         estimate D2E/DX2                !
 ! A17   A(3,6,10)             119.2439         estimate D2E/DX2                !
 ! A18   A(5,6,10)             121.1479         estimate D2E/DX2                !
 ! A19   A(2,7,12)             110.5802         estimate D2E/DX2                !
 ! A20   A(2,7,13)             109.4854         estimate D2E/DX2                !
 ! A21   A(2,7,14)             108.4681         estimate D2E/DX2                !
 ! A22   A(12,7,13)            113.6365         estimate D2E/DX2                !
 ! A23   A(12,7,14)            107.5634         estimate D2E/DX2                !
 ! A24   A(13,7,14)            106.906          estimate D2E/DX2                !
 ! A25   A(3,11,15)            105.78           estimate D2E/DX2                !
 ! A26   A(3,11,16)            113.1723         estimate D2E/DX2                !
 ! A27   A(3,11,17)            110.7792         estimate D2E/DX2                !
 ! A28   A(15,11,16)           101.9088         estimate D2E/DX2                !
 ! A29   A(15,11,17)           110.0494         estimate D2E/DX2                !
 ! A30   A(16,11,17)           114.4068         estimate D2E/DX2                !
 ! A31   A(7,12,19)            113.2425         estimate D2E/DX2                !
 ! A32   A(7,12,21)            111.109          estimate D2E/DX2                !
 ! A33   A(19,12,21)           114.7124         estimate D2E/DX2                !
 ! A34   A(11,16,18)            90.1219         estimate D2E/DX2                !
 ! A35   A(11,16,20)           101.9157         estimate D2E/DX2                !
 ! A36   A(11,16,22)           105.0639         estimate D2E/DX2                !
 ! A37   A(18,16,20)           119.2273         estimate D2E/DX2                !
 ! A38   A(18,16,22)           122.4595         estimate D2E/DX2                !
 ! A39   A(20,16,22)           111.3408         estimate D2E/DX2                !
 ! A40   A(1,18,16)             77.4348         estimate D2E/DX2                !
 ! A41   A(1,18,29)             99.1875         estimate D2E/DX2                !
 ! A42   A(1,18,39)             81.194          estimate D2E/DX2                !
 ! A43   A(16,18,29)            95.1519         estimate D2E/DX2                !
 ! A44   A(16,18,37)           104.5769         estimate D2E/DX2                !
 ! A45   A(16,18,39)            88.0687         estimate D2E/DX2                !
 ! A46   A(29,18,37)            94.9031         estimate D2E/DX2                !
 ! A47   A(37,18,39)            84.5576         estimate D2E/DX2                !
 ! A48   A(12,19,31)           107.1292         estimate D2E/DX2                !
 ! A49   A(12,19,32)           115.9432         estimate D2E/DX2                !
 ! A50   A(12,19,33)           107.032          estimate D2E/DX2                !
 ! A51   A(31,19,32)           111.1246         estimate D2E/DX2                !
 ! A52   A(31,19,33)           103.9944         estimate D2E/DX2                !
 ! A53   A(32,19,33)           110.8422         estimate D2E/DX2                !
 ! A54   A(16,20,23)           105.799          estimate D2E/DX2                !
 ! A55   A(16,20,24)           109.5498         estimate D2E/DX2                !
 ! A56   A(16,20,25)           113.8819         estimate D2E/DX2                !
 ! A57   A(23,20,24)           108.0886         estimate D2E/DX2                !
 ! A58   A(23,20,25)           109.1909         estimate D2E/DX2                !
 ! A59   A(24,20,25)           110.1011         estimate D2E/DX2                !
 ! A60   A(12,21,34)           106.3452         estimate D2E/DX2                !
 ! A61   A(12,21,35)           113.2835         estimate D2E/DX2                !
 ! A62   A(12,21,36)           110.8867         estimate D2E/DX2                !
 ! A63   A(34,21,35)           109.2716         estimate D2E/DX2                !
 ! A64   A(34,21,36)           106.4004         estimate D2E/DX2                !
 ! A65   A(35,21,36)           110.3345         estimate D2E/DX2                !
 ! A66   A(16,22,26)           106.8469         estimate D2E/DX2                !
 ! A67   A(16,22,27)           114.9044         estimate D2E/DX2                !
 ! A68   A(16,22,28)           107.8541         estimate D2E/DX2                !
 ! A69   A(26,22,27)           108.8249         estimate D2E/DX2                !
 ! A70   A(26,22,28)           107.5861         estimate D2E/DX2                !
 ! A71   A(27,22,28)           110.5322         estimate D2E/DX2                !
 ! A72   A(20,23,46)           108.6353         estimate D2E/DX2                !
 ! A73   A(20,23,47)           112.0969         estimate D2E/DX2                !
 ! A74   A(20,23,48)           111.2295         estimate D2E/DX2                !
 ! A75   A(46,23,47)           108.9077         estimate D2E/DX2                !
 ! A76   A(46,23,48)           109.2844         estimate D2E/DX2                !
 ! A77   A(47,23,48)           106.628          estimate D2E/DX2                !
 ! A78   A(20,24,49)           108.7252         estimate D2E/DX2                !
 ! A79   A(20,24,50)           111.4936         estimate D2E/DX2                !
 ! A80   A(20,24,51)           112.8551         estimate D2E/DX2                !
 ! A81   A(49,24,50)           107.509          estimate D2E/DX2                !
 ! A82   A(49,24,51)           107.3696         estimate D2E/DX2                !
 ! A83   A(50,24,51)           108.6703         estimate D2E/DX2                !
 ! A84   A(20,25,52)           108.8404         estimate D2E/DX2                !
 ! A85   A(20,25,53)           113.1322         estimate D2E/DX2                !
 ! A86   A(20,25,54)           111.7135         estimate D2E/DX2                !
 ! A87   A(52,25,53)           107.5024         estimate D2E/DX2                !
 ! A88   A(52,25,54)           106.9099         estimate D2E/DX2                !
 ! A89   A(53,25,54)           108.4744         estimate D2E/DX2                !
 ! A90   A(22,26,61)           108.7484         estimate D2E/DX2                !
 ! A91   A(22,26,62)           111.9144         estimate D2E/DX2                !
 ! A92   A(22,26,63)           112.3672         estimate D2E/DX2                !
 ! A93   A(61,26,62)           107.7916         estimate D2E/DX2                !
 ! A94   A(61,26,63)           107.4555         estimate D2E/DX2                !
 ! A95   A(62,26,63)           108.3696         estimate D2E/DX2                !
 ! A96   A(22,27,55)           112.3751         estimate D2E/DX2                !
 ! A97   A(22,27,56)           109.401          estimate D2E/DX2                !
 ! A98   A(22,27,57)           112.0275         estimate D2E/DX2                !
 ! A99   A(55,27,56)           107.2669         estimate D2E/DX2                !
 ! A100  A(55,27,57)           108.2714         estimate D2E/DX2                !
 ! A101  A(56,27,57)           107.2624         estimate D2E/DX2                !
 ! A102  A(22,28,58)           112.6988         estimate D2E/DX2                !
 ! A103  A(22,28,59)           111.229          estimate D2E/DX2                !
 ! A104  A(22,28,60)           109.165          estimate D2E/DX2                !
 ! A105  A(58,28,59)           108.2198         estimate D2E/DX2                !
 ! A106  A(58,28,60)           107.5486         estimate D2E/DX2                !
 ! A107  A(59,28,60)           107.7991         estimate D2E/DX2                !
 ! A108  A(19,32,43)           109.3869         estimate D2E/DX2                !
 ! A109  A(19,32,44)           112.5595         estimate D2E/DX2                !
 ! A110  A(19,32,45)           112.3569         estimate D2E/DX2                !
 ! A111  A(43,32,44)           107.1018         estimate D2E/DX2                !
 ! A112  A(43,32,45)           107.3824         estimate D2E/DX2                !
 ! A113  A(44,32,45)           107.7916         estimate D2E/DX2                !
 ! A114  A(21,35,40)           110.347          estimate D2E/DX2                !
 ! A115  A(21,35,41)           112.3232         estimate D2E/DX2                !
 ! A116  A(21,35,42)           109.3496         estimate D2E/DX2                !
 ! A117  A(40,35,41)           108.6072         estimate D2E/DX2                !
 ! A118  A(40,35,42)           108.8054         estimate D2E/DX2                !
 ! A119  A(41,35,42)           107.3054         estimate D2E/DX2                !
 ! A120  A(18,37,38)           113.6139         estimate D2E/DX2                !
 ! A121  L(1,18,37,16,-1)      182.0118         estimate D2E/DX2                !
 ! A122  L(29,18,39,1,-1)      180.3814         estimate D2E/DX2                !
 ! A123  L(18,29,30,7,-1)      180.7692         estimate D2E/DX2                !
 ! A124  L(1,18,37,16,-2)      194.7256         estimate D2E/DX2                !
 ! A125  L(29,18,39,1,-2)      183.2524         estimate D2E/DX2                !
 ! A126  L(18,29,30,7,-2)      178.796          estimate D2E/DX2                !
 ! D1    D(3,1,2,4)             -2.0096         estimate D2E/DX2                !
 ! D2    D(3,1,2,7)            177.4725         estimate D2E/DX2                !
 ! D3    D(18,1,2,4)          -174.6974         estimate D2E/DX2                !
 ! D4    D(18,1,2,7)             4.7847         estimate D2E/DX2                !
 ! D5    D(2,1,3,6)              2.2134         estimate D2E/DX2                !
 ! D6    D(2,1,3,11)          -176.1436         estimate D2E/DX2                !
 ! D7    D(18,1,3,6)           174.9471         estimate D2E/DX2                !
 ! D8    D(18,1,3,11)           -3.4098         estimate D2E/DX2                !
 ! D9    D(2,1,18,16)         -160.708          estimate D2E/DX2                !
 ! D10   D(2,1,18,29)          -67.4321         estimate D2E/DX2                !
 ! D11   D(2,1,18,39)          109.3155         estimate D2E/DX2                !
 ! D12   D(3,1,18,16)           26.585          estimate D2E/DX2                !
 ! D13   D(3,1,18,29)          119.8609         estimate D2E/DX2                !
 ! D14   D(3,1,18,39)          -63.3915         estimate D2E/DX2                !
 ! D15   D(2,1,37,38)          -73.8729         estimate D2E/DX2                !
 ! D16   D(3,1,37,38)          120.9362         estimate D2E/DX2                !
 ! D17   D(1,2,4,5)              0.3844         estimate D2E/DX2                !
 ! D18   D(1,2,4,8)            179.7869         estimate D2E/DX2                !
 ! D19   D(7,2,4,5)           -179.0661         estimate D2E/DX2                !
 ! D20   D(7,2,4,8)              0.3364         estimate D2E/DX2                !
 ! D21   D(1,2,7,12)           -44.5409         estimate D2E/DX2                !
 ! D22   D(1,2,7,13)          -170.4952         estimate D2E/DX2                !
 ! D23   D(1,2,7,14)            73.1844         estimate D2E/DX2                !
 ! D24   D(4,2,7,12)           134.9399         estimate D2E/DX2                !
 ! D25   D(4,2,7,13)             8.9856         estimate D2E/DX2                !
 ! D26   D(4,2,7,14)          -107.3347         estimate D2E/DX2                !
 ! D27   D(1,3,6,5)             -0.8143         estimate D2E/DX2                !
 ! D28   D(1,3,6,10)           179.6371         estimate D2E/DX2                !
 ! D29   D(11,3,6,5)           177.4958         estimate D2E/DX2                !
 ! D30   D(11,3,6,10)           -2.0528         estimate D2E/DX2                !
 ! D31   D(1,3,11,15)           75.4907         estimate D2E/DX2                !
 ! D32   D(1,3,11,16)          -35.2545         estimate D2E/DX2                !
 ! D33   D(1,3,11,17)         -165.2823         estimate D2E/DX2                !
 ! D34   D(6,3,11,15)         -102.8652         estimate D2E/DX2                !
 ! D35   D(6,3,11,16)          146.3896         estimate D2E/DX2                !
 ! D36   D(6,3,11,17)           16.3618         estimate D2E/DX2                !
 ! D37   D(2,4,5,6)              1.0056         estimate D2E/DX2                !
 ! D38   D(2,4,5,9)           -179.9601         estimate D2E/DX2                !
 ! D39   D(8,4,5,6)           -178.3849         estimate D2E/DX2                !
 ! D40   D(8,4,5,9)              0.6494         estimate D2E/DX2                !
 ! D41   D(4,5,6,3)             -0.7976         estimate D2E/DX2                !
 ! D42   D(4,5,6,10)           178.7422         estimate D2E/DX2                !
 ! D43   D(9,5,6,3)           -179.8328         estimate D2E/DX2                !
 ! D44   D(9,5,6,10)            -0.293          estimate D2E/DX2                !
 ! D45   D(2,7,12,19)          -63.2921         estimate D2E/DX2                !
 ! D46   D(2,7,12,21)          165.9007         estimate D2E/DX2                !
 ! D47   D(13,7,12,19)          60.299          estimate D2E/DX2                !
 ! D48   D(13,7,12,21)         -70.5082         estimate D2E/DX2                !
 ! D49   D(14,7,12,19)         178.4292         estimate D2E/DX2                !
 ! D50   D(14,7,12,21)          47.622          estimate D2E/DX2                !
 ! D51   D(3,11,16,18)          45.4655         estimate D2E/DX2                !
 ! D52   D(3,11,16,20)         165.431          estimate D2E/DX2                !
 ! D53   D(3,11,16,22)         -78.3401         estimate D2E/DX2                !
 ! D54   D(15,11,16,18)        -67.6499         estimate D2E/DX2                !
 ! D55   D(15,11,16,20)         52.3156         estimate D2E/DX2                !
 ! D56   D(15,11,16,22)        168.5445         estimate D2E/DX2                !
 ! D57   D(17,11,16,18)        173.6353         estimate D2E/DX2                !
 ! D58   D(17,11,16,20)        -66.3992         estimate D2E/DX2                !
 ! D59   D(17,11,16,22)         49.8297         estimate D2E/DX2                !
 ! D60   D(7,12,19,31)          57.8544         estimate D2E/DX2                !
 ! D61   D(7,12,19,32)         -66.8489         estimate D2E/DX2                !
 ! D62   D(7,12,19,33)         168.8977         estimate D2E/DX2                !
 ! D63   D(21,12,19,31)       -173.1604         estimate D2E/DX2                !
 ! D64   D(21,12,19,32)         62.1362         estimate D2E/DX2                !
 ! D65   D(21,12,19,33)        -62.1171         estimate D2E/DX2                !
 ! D66   D(7,12,21,34)         -54.6465         estimate D2E/DX2                !
 ! D67   D(7,12,21,35)        -174.6893         estimate D2E/DX2                !
 ! D68   D(7,12,21,36)          60.6213         estimate D2E/DX2                !
 ! D69   D(19,12,21,34)        175.3139         estimate D2E/DX2                !
 ! D70   D(19,12,21,35)         55.271          estimate D2E/DX2                !
 ! D71   D(19,12,21,36)        -69.4184         estimate D2E/DX2                !
 ! D72   D(11,16,18,1)         -33.2975         estimate D2E/DX2                !
 ! D73   D(11,16,18,29)       -131.5857         estimate D2E/DX2                !
 ! D74   D(11,16,18,37)        131.9769         estimate D2E/DX2                !
 ! D75   D(11,16,18,39)         48.1091         estimate D2E/DX2                !
 ! D76   D(20,16,18,1)        -137.0533         estimate D2E/DX2                !
 ! D77   D(20,16,18,29)        124.6586         estimate D2E/DX2                !
 ! D78   D(20,16,18,37)         28.2212         estimate D2E/DX2                !
 ! D79   D(20,16,18,39)        -55.6466         estimate D2E/DX2                !
 ! D80   D(22,16,18,1)          74.7238         estimate D2E/DX2                !
 ! D81   D(22,16,18,29)        -23.5644         estimate D2E/DX2                !
 ! D82   D(22,16,18,37)       -120.0018         estimate D2E/DX2                !
 ! D83   D(22,16,18,39)        156.1304         estimate D2E/DX2                !
 ! D84   D(11,16,20,23)        -81.6658         estimate D2E/DX2                !
 ! D85   D(11,16,20,24)        162.0456         estimate D2E/DX2                !
 ! D86   D(11,16,20,25)         38.2608         estimate D2E/DX2                !
 ! D87   D(18,16,20,23)         15.2585         estimate D2E/DX2                !
 ! D88   D(18,16,20,24)       -101.0302         estimate D2E/DX2                !
 ! D89   D(18,16,20,25)        135.1851         estimate D2E/DX2                !
 ! D90   D(22,16,20,23)        166.7654         estimate D2E/DX2                !
 ! D91   D(22,16,20,24)         50.4767         estimate D2E/DX2                !
 ! D92   D(22,16,20,25)        -73.308          estimate D2E/DX2                !
 ! D93   D(11,16,22,26)         54.2922         estimate D2E/DX2                !
 ! D94   D(11,16,22,27)        -66.525          estimate D2E/DX2                !
 ! D95   D(11,16,22,28)        169.7088         estimate D2E/DX2                !
 ! D96   D(18,16,22,26)        -45.7171         estimate D2E/DX2                !
 ! D97   D(18,16,22,27)       -166.5342         estimate D2E/DX2                !
 ! D98   D(18,16,22,28)         69.6996         estimate D2E/DX2                !
 ! D99   D(20,16,22,26)        163.8474         estimate D2E/DX2                !
 ! D100  D(20,16,22,27)         43.0303         estimate D2E/DX2                !
 ! D101  D(20,16,22,28)        -80.7359         estimate D2E/DX2                !
 ! D102  D(16,18,37,38)         93.6171         estimate D2E/DX2                !
 ! D103  D(29,18,37,38)         -3.0114         estimate D2E/DX2                !
 ! D104  D(39,18,37,38)       -179.8087         estimate D2E/DX2                !
 ! D105  D(12,19,32,43)        179.8091         estimate D2E/DX2                !
 ! D106  D(12,19,32,44)         60.8773         estimate D2E/DX2                !
 ! D107  D(12,19,32,45)        -61.0356         estimate D2E/DX2                !
 ! D108  D(31,19,32,43)         57.1869         estimate D2E/DX2                !
 ! D109  D(31,19,32,44)        -61.7448         estimate D2E/DX2                !
 ! D110  D(31,19,32,45)        176.3423         estimate D2E/DX2                !
 ! D111  D(33,19,32,43)        -57.9315         estimate D2E/DX2                !
 ! D112  D(33,19,32,44)       -176.8633         estimate D2E/DX2                !
 ! D113  D(33,19,32,45)         61.2239         estimate D2E/DX2                !
 ! D114  D(16,20,23,46)        179.6128         estimate D2E/DX2                !
 ! D115  D(16,20,23,47)         59.2154         estimate D2E/DX2                !
 ! D116  D(16,20,23,48)        -60.0622         estimate D2E/DX2                !
 ! D117  D(24,20,23,46)        -63.112          estimate D2E/DX2                !
 ! D118  D(24,20,23,47)        176.4907         estimate D2E/DX2                !
 ! D119  D(24,20,23,48)         57.2131         estimate D2E/DX2                !
 ! D120  D(25,20,23,46)         56.6572         estimate D2E/DX2                !
 ! D121  D(25,20,23,47)        -63.7402         estimate D2E/DX2                !
 ! D122  D(25,20,23,48)        176.9822         estimate D2E/DX2                !
 ! D123  D(16,20,24,49)        169.3288         estimate D2E/DX2                !
 ! D124  D(16,20,24,50)         50.9763         estimate D2E/DX2                !
 ! D125  D(16,20,24,51)        -71.662          estimate D2E/DX2                !
 ! D126  D(23,20,24,49)         54.4989         estimate D2E/DX2                !
 ! D127  D(23,20,24,50)        -63.8536         estimate D2E/DX2                !
 ! D128  D(23,20,24,51)        173.5081         estimate D2E/DX2                !
 ! D129  D(25,20,24,49)        -64.6956         estimate D2E/DX2                !
 ! D130  D(25,20,24,50)        176.952          estimate D2E/DX2                !
 ! D131  D(25,20,24,51)         54.3136         estimate D2E/DX2                !
 ! D132  D(16,20,25,52)        179.9722         estimate D2E/DX2                !
 ! D133  D(16,20,25,53)         60.5448         estimate D2E/DX2                !
 ! D134  D(16,20,25,54)        -62.2085         estimate D2E/DX2                !
 ! D135  D(23,20,25,52)        -62.0335         estimate D2E/DX2                !
 ! D136  D(23,20,25,53)        178.5391         estimate D2E/DX2                !
 ! D137  D(23,20,25,54)         55.7858         estimate D2E/DX2                !
 ! D138  D(24,20,25,52)         56.4862         estimate D2E/DX2                !
 ! D139  D(24,20,25,53)        -62.9413         estimate D2E/DX2                !
 ! D140  D(24,20,25,54)        174.3055         estimate D2E/DX2                !
 ! D141  D(12,21,35,40)         50.2384         estimate D2E/DX2                !
 ! D142  D(12,21,35,41)        -71.104          estimate D2E/DX2                !
 ! D143  D(12,21,35,42)        169.8831         estimate D2E/DX2                !
 ! D144  D(34,21,35,40)        -68.1222         estimate D2E/DX2                !
 ! D145  D(34,21,35,41)        170.5353         estimate D2E/DX2                !
 ! D146  D(34,21,35,42)         51.5224         estimate D2E/DX2                !
 ! D147  D(36,21,35,40)        175.2262         estimate D2E/DX2                !
 ! D148  D(36,21,35,41)         53.8838         estimate D2E/DX2                !
 ! D149  D(36,21,35,42)        -65.1291         estimate D2E/DX2                !
 ! D150  D(16,22,26,61)        170.3542         estimate D2E/DX2                !
 ! D151  D(16,22,26,62)         51.384          estimate D2E/DX2                !
 ! D152  D(16,22,26,63)        -70.8154         estimate D2E/DX2                !
 ! D153  D(27,22,26,61)        -65.0289         estimate D2E/DX2                !
 ! D154  D(27,22,26,62)        176.001          estimate D2E/DX2                !
 ! D155  D(27,22,26,63)         53.8015         estimate D2E/DX2                !
 ! D156  D(28,22,26,61)         54.7581         estimate D2E/DX2                !
 ! D157  D(28,22,26,62)        -64.2121         estimate D2E/DX2                !
 ! D158  D(28,22,26,63)        173.5884         estimate D2E/DX2                !
 ! D159  D(16,22,27,55)        -66.2519         estimate D2E/DX2                !
 ! D160  D(16,22,27,56)        174.7165         estimate D2E/DX2                !
 ! D161  D(16,22,27,57)         55.9088         estimate D2E/DX2                !
 ! D162  D(26,22,27,55)        174.0213         estimate D2E/DX2                !
 ! D163  D(26,22,27,56)         54.9897         estimate D2E/DX2                !
 ! D164  D(26,22,27,57)        -63.818          estimate D2E/DX2                !
 ! D165  D(28,22,27,55)         56.0812         estimate D2E/DX2                !
 ! D166  D(28,22,27,56)        -62.9503         estimate D2E/DX2                !
 ! D167  D(28,22,27,57)        178.2419         estimate D2E/DX2                !
 ! D168  D(16,22,28,58)         67.6611         estimate D2E/DX2                !
 ! D169  D(16,22,28,59)        -54.0793         estimate D2E/DX2                !
 ! D170  D(16,22,28,60)       -172.9075         estimate D2E/DX2                !
 ! D171  D(26,22,28,58)       -177.4096         estimate D2E/DX2                !
 ! D172  D(26,22,28,59)         60.85           estimate D2E/DX2                !
 ! D173  D(26,22,28,60)        -57.9782         estimate D2E/DX2                !
 ! D174  D(27,22,28,58)        -58.7134         estimate D2E/DX2                !
 ! D175  D(27,22,28,59)        179.5462         estimate D2E/DX2                !
 ! D176  D(27,22,28,60)         60.718          estimate D2E/DX2                !
 --------------------------------------------------------------------------------
 Trust Radius=3.00D-01 FncErr=1.00D-07 GrdErr=1.00D-06 EigMax=2.50D+02 EigMin=1.00D-04
 Number of steps in this run=    376 maximum allowed number of steps=    378.
 GradGradGradGradGradGradGradGradGradGradGradGradGradGradGradGradGradGrad

 Stoichiometry    C20H36N2O3PRu(2)
 Framework group  C1[X(C20H36N2O3PRu)]
 Deg. of freedom   183
 Full point group                 C1      NOp   1
 Largest Abelian subgroup         C1      NOp   1
 Largest concise Abelian subgroup C1      NOp   1
                         Standard orientation:                         
 ---------------------------------------------------------------------
 Center     Atomic      Atomic             Coordinates (Angstroms)
 Number     Number       Type             X           Y           Z
 ---------------------------------------------------------------------
      1          7           0       -0.730374    1.307091   -0.105211
      2          6           0       -1.877876    1.890910    0.282456
      3          6           0        0.212861    2.034703   -0.729777
      4          6           0       -2.111061    3.247999    0.094343
      5          6           0       -1.130397    4.020330   -0.520048
      6          6           0        0.038292    3.404504   -0.942896
      7          6           0       -2.894258    0.987629    0.918311
      8          1           0       -3.057043    3.681793    0.420228
      9          1           0       -1.283929    5.089017   -0.681165
     10          1           0        0.823180    3.969568   -1.446937
     11          6           0        1.435801    1.329248   -1.222267
     12          7           0       -3.019070   -0.247287    0.168059
     13          1           0       -3.850898    1.533690    1.037349
     14          1           0       -2.544984    0.727436    1.932177
     15          1           0        1.121981    0.782297   -2.131995
     16         15           0        1.977522   -0.054295   -0.111541
     17          1           0        2.228110    2.049391   -1.470119
     18         44           0       -0.485796   -0.887844    0.060837
     19          6           0       -3.514332   -0.047202   -1.197417
     20          6           0        3.200188   -0.994610   -1.223444
     21          6           0       -3.740342   -1.260846    0.937873
     22          6           0        2.871263    0.795261    1.336285
     23          6           0        2.341967   -1.888938   -2.124240
     24          6           0        4.084609   -1.897033   -0.362648
     25          6           0        4.067507   -0.086710   -2.096159
     26          6           0        1.899149    1.830678    1.912236
     27          6           0        4.174907    1.497076    0.964154
     28          6           0        3.119168   -0.260015    2.419672
     29          6           0       -0.479167   -1.045309    1.899401
     30          8           0       -0.477041   -1.172422    3.059337
     31          1           0       -2.816674    0.639082   -1.697463
     32          6           0       -4.950184    0.444487   -1.319857
     33          1           0       -3.380104   -0.996874   -1.730360
     34          1           0       -3.207768   -1.358547    1.897507
     35          6           0       -3.788378   -2.612517    0.252275
     36          1           0       -4.767153   -0.915624    1.182816
     37          8           0       -0.377537   -2.833832   -0.275889
     38          1           0       -0.302642   -3.361928    0.528739
     39          8           0       -0.605892   -0.738987   -1.979950
     40          1           0       -2.778589   -2.916210   -0.067020
     41          1           0       -4.449277   -2.611697   -0.627306
     42          1           0       -4.179226   -3.363842    0.954628
     43          1           0       -5.207238    0.560171   -2.383630
     44          1           0       -5.103524    1.424711   -0.841066
     45          1           0       -5.673269   -0.260872   -0.881515
     46          1           0        3.008437   -2.454168   -2.797723
     47          1           0        1.633592   -1.307036   -2.730246
     48          1           0        1.742592   -2.594384   -1.530266
     49          1           0        4.650889   -2.573151   -1.024540
     50          1           0        3.483799   -2.523141    0.314608
     51          1           0        4.815921   -1.333989    0.234642
     52          1           0        4.742181   -0.714531   -2.703206
     53          1           0        4.693054    0.602557   -1.513353
     54          1           0        3.460765    0.502783   -2.798702
     55          1           0        4.952851    0.791083    0.642055
     56          1           0        4.565700    2.035867    1.844915
     57          1           0        4.030286    2.239939    0.164318
     58          1           0        3.843951   -1.023043    2.109506
     59          1           0        2.185390   -0.767489    2.702340
     60          1           0        3.520878    0.233529    3.320808
     61          1           0        2.314235    2.219480    2.857043
     62          1           0        0.915145    1.391661    2.132943
     63          1           0        1.753144    2.687478    1.238841
 ---------------------------------------------------------------------
 Rotational constants (GHZ):           0.2470548           0.1416610           0.1223804
 General basis read from cards:  (5D, 7F)
 ======================================================================================================
                                       Pseudopotential Parameters
 ======================================================================================================
  Center     Atomic      Valence      Angular      Power
  Number     Number     Electrons     Momentum     of R      Exponent        Coefficient   SO-Coeffient
 ======================================================================================================
    1          7
                                   No pseudopotential on this center.
    2          6
                                   No pseudopotential on this center.
    3          6
                                   No pseudopotential on this center.
    4          6
                                   No pseudopotential on this center.
    5          6
                                   No pseudopotential on this center.
    6          6
                                   No pseudopotential on this center.
    7          6
                                   No pseudopotential on this center.
    8          1
                                   No pseudopotential on this center.
    9          1
                                   No pseudopotential on this center.
   10          1
                                   No pseudopotential on this center.
   11          6
                                   No pseudopotential on this center.
   12          7
                                   No pseudopotential on this center.
   13          1
                                   No pseudopotential on this center.
   14          1
                                   No pseudopotential on this center.
   15          1
                                   No pseudopotential on this center.
   16         15
                                   No pseudopotential on this center.
   17          1
                                   No pseudopotential on this center.
   18         44           16
                                      G and up 
                                                     2        1.0000000        0.00000000    0.00000000
                                      S - G
                                                     2       11.1052690      209.82297100    0.00000000
                                                     2        5.4147450       30.65472600    0.00000000
                                      P - G
                                                     2        9.7712710      146.33618200    0.00000000
                                                     2        5.0739910       24.12787700    0.00000000
                                      D - G
                                                     2        7.6714230       67.51589700    0.00000000
                                                     2        4.1365650        9.87010400    0.00000000
                                      F - G
                                                     2       11.3600000      -28.34061600    0.00000000
                                                     2        5.6800000       -4.94462900    0.00000000
   19          6
                                   No pseudopotential on this center.
   20          6
                                   No pseudopotential on this center.
   21          6
                                   No pseudopotential on this center.
   22          6
                                   No pseudopotential on this center.
   23          6
                                   No pseudopotential on this center.
   24          6
                                   No pseudopotential on this center.
   25          6
                                   No pseudopotential on this center.
   26          6
                                   No pseudopotential on this center.
   27          6
                                   No pseudopotential on this center.
   28          6
                                   No pseudopotential on this center.
   29          6
                                   No pseudopotential on this center.
   30          8
                                   No pseudopotential on this center.
   31          1
                                   No pseudopotential on this center.
   32          6
                                   No pseudopotential on this center.
   33          1
                                   No pseudopotential on this center.
   34          1
                                   No pseudopotential on this center.
   35          6
                                   No pseudopotential on this center.
   36          1
                                   No pseudopotential on this center.
   37          8
                                   No pseudopotential on this center.
   38          1
                                   No pseudopotential on this center.
   39          8
                                   No pseudopotential on this center.
   40          1
                                   No pseudopotential on this center.
   41          1
                                   No pseudopotential on this center.
   42          1
                                   No pseudopotential on this center.
   43          1
                                   No pseudopotential on this center.
   44          1
                                   No pseudopotential on this center.
   45          1
                                   No pseudopotential on this center.
   46          1
                                   No pseudopotential on this center.
   47          1
                                   No pseudopotential on this center.
   48          1
                                   No pseudopotential on this center.
   49          1
                                   No pseudopotential on this center.
   50          1
                                   No pseudopotential on this center.
   51          1
                                   No pseudopotential on this center.
   52          1
                                   No pseudopotential on this center.
   53          1
                                   No pseudopotential on this center.
   54          1
                                   No pseudopotential on this center.
   55          1
                                   No pseudopotential on this center.
   56          1
                                   No pseudopotential on this center.
   57          1
                                   No pseudopotential on this center.
   58          1
                                   No pseudopotential on this center.
   59          1
                                   No pseudopotential on this center.
   60          1
                                   No pseudopotential on this center.
   61          1
                                   No pseudopotential on this center.
   62          1
                                   No pseudopotential on this center.
   63          1
                                   No pseudopotential on this center.
 ======================================================================================================
 There are   613 symmetry adapted cartesian basis functions of A   symmetry.
 There are   584 symmetry adapted basis functions of A   symmetry.
   584 basis functions,  1213 primitive gaussians,   613 cartesian basis functions
   113 alpha electrons      112 beta electrons
       nuclear repulsion energy      3386.7385207020 Hartrees.
 NAtoms=   63 NActive=   63 NUniq=   63 SFac= 1.00D+00 NAtFMM=   60 NAOKFM=T Big=T
 Integral buffers will be    131072 words long.
 Raffenetti 2 integral format.
 Two-electron integral symmetry is turned on.
 Nuclear repulsion after empirical dispersion term =     3386.6432935801 Hartrees.
 One-electron integrals computed using PRISM.
   1 Symmetry operations used in ECPInt.
 ECPInt:  NShTT=   39340 NPrTT=  276277 LenC2=   36098 LenP2D=  137697.
 LDataN:  DoStor=T MaxTD1= 6 Len=  172
 Number of processors reduced to  16 by ecpmxn.
 NBasis=   584 RedAO= T EigKep=  4.48D-04  NBF=   584
 NBsUse=   584 1.00D-06 EigRej= -1.00D+00 NBFU=   584
 Defaulting to unpruned grid for atomic number  44.
 ExpMin= 1.60D-02 ExpMax= 9.48D+04 ExpMxC= 3.24D+03 IAcc=3 IRadAn=         5 AccDes= 0.00D+00
 Harris functional with IExCor= 1009 and IRadAn=       5 diagonalized for initial guess.
 HarFok:  IExCor= 1009 AccDes= 0.00D+00 IRadAn=         5 IDoV= 1 UseB2=F ITyADJ=14
 ICtDFT=  3500011 ScaDFX=  1.000000  1.000000  1.000000  1.000000
 Defaulting to unpruned grid for atomic number  44.
 FoFCou: FMM=F IPFlag=           0 FMFlag=      100000 FMFlg1=        2001
         NFxFlg=           0 DoJE=T BraDBF=F KetDBF=T FulRan=T
         wScrn=  0.000000 ICntrl=       500 IOpCl=  0 I1Cent=   200000004 NGrid=           0
         NMat0=    1 NMatS0=      1 NMatT0=    0 NMatD0=    1 NMtDS0=    0 NMtDT0=    0
 Petite list used in FoFCou.
 Initial guess <Sx>= 0.0000 <Sy>= 0.0000 <Sz>= 0.5000 <S**2>= 0.7500 S= 0.5000
 Requested convergence on RMS density matrix=1.00D-08 within 128 cycles.
 Requested convergence on MAX density matrix=1.00D-06.
 Requested convergence on             energy=1.00D-06.
 No special actions if energy rises.
 Defaulting to unpruned grid for atomic number  44.
 Defaulting to unpruned grid for atomic number  44.
 Defaulting to unpruned grid for atomic number  44.
 Defaulting to unpruned grid for atomic number  44.
 Defaulting to unpruned grid for atomic number  44.
 Defaulting to unpruned grid for atomic number  44.
 Defaulting to unpruned grid for atomic number  44.
 Defaulting to unpruned grid for atomic number  44.
 Defaulting to unpruned grid for atomic number  44.
 Defaulting to unpruned grid for atomic number  44.
 Defaulting to unpruned grid for atomic number  44.
 Defaulting to unpruned grid for atomic number  44.
 Defaulting to unpruned grid for atomic number  44.
 Defaulting to unpruned grid for atomic number  44.
 Defaulting to unpruned grid for atomic number  44.
 Defaulting to unpruned grid for atomic number  44.
 Defaulting to unpruned grid for atomic number  44.
 Defaulting to unpruned grid for atomic number  44.
 Defaulting to unpruned grid for atomic number  44.
 Defaulting to unpruned grid for atomic number  44.
 EnCoef did    28 forward-backward iterations
 EnCoef did   100 forward-backward iterations
 EnCoef did     2 forward-backward iterations
 Rare condition: small coef for last iteration:  0.000D+00
 EnCoef did   100 forward-backward iterations
 Rare condition: small coef for last iteration:  0.000D+00
 EnCoef did   100 forward-backward iterations
 Rare condition: small coef for last iteration:  0.000D+00
 EnCoef did   100 forward-backward iterations
 Rare condition: small coef for last iteration:  0.000D+00
 EnCoef did   100 forward-backward iterations
 EnCoef did   100 forward-backward iterations
 Rare condition: small coef for last iteration:  0.564D-16
 Rare condition: small coef for last iteration:  0.000D+00
 Rare condition: small coef for last iteration:  0.000D+00
 Restarting incremental Fock formation.
 Rare condition: small coef for last iteration:  0.000D+00
 Restarting incremental Fock formation.
 Restarting incremental Fock formation.
 SCF Done:  E(UPBE1PBE) =  -1553.95636563     A.U. after   64 cycles
            NFock= 64  Conv=0.19D-08     -V/T= 2.0468
 <Sx>= 0.0000 <Sy>= 0.0000 <Sz>= 0.5000 <S**2>= 0.7580 S= 0.5040
 <L.S>= 0.000000000000E+00
 Annihilation of the first spin contaminant:
 S**2 before annihilation     0.7580,   after     0.7501

 **********************************************************************

            Population analysis using the SCF density.

 **********************************************************************

 Orbital symmetries:
 Alpha Orbitals:
       Occupied  (A) (A) (A) (A) (A) (A) (A) (A) (A) (A) (A) (A)
                 (A) (A) (A) (A) (A) (A) (A) (A) (A) (A) (A) (A)
                 (A) (A) (A) (A) (A) (A) (A) (A) (A) (A) (A) (A)
                 (A) (A) (A) (A) (A) (A) (A) (A) (A) (A) (A) (A)
                 (A) (A) (A) (A) (A) (A) (A) (A) (A) (A) (A) (A)
                 (A) (A) (A) (A) (A) (A) (A) (A) (A) (A) (A) (A)
                 (A) (A) (A) (A) (A) (A) (A) (A) (A) (A) (A) (A)
                 (A) (A) (A) (A) (A) (A) (A) (A) (A) (A) (A) (A)
                 (A) (A) (A) (A) (A) (A) (A) (A) (A) (A) (A) (A)
                 (A) (A) (A) (A) (A)
       Virtual   (A) (A) (A) (A) (A) (A) (A) (A) (A) (A) (A) (A)
                 (A) (A) (A) (A) (A) (A) (A) (A) (A) (A) (A) (A)
                 (A) (A) (A) (A) (A) (A) (A) (A) (A) (A) (A) (A)
                 (A) (A) (A) (A) (A) (A) (A) (A) (A) (A) (A) (A)
                 (A) (A) (A) (A) (A) (A) (A) (A) (A) (A) (A) (A)
                 (A) (A) (A) (A) (A) (A) (A) (A) (A) (A) (A) (A)
                 (A) (A) (A) (A) (A) (A) (A) (A) (A) (A) (A) (A)
                 (A) (A) (A) (A) (A) (A) (A) (A) (A) (A) (A) (A)
                 (A) (A) (A) (A) (A) (A) (A) (A) (A) (A) (A) (A)
                 (A) (A) (A) (A) (A) (A) (A) (A) (A) (A) (A) (A)
                 (A) (A) (A) (A) (A) (A) (A) (A) (A) (A) (A) (A)
                 (A) (A) (A) (A) (A) (A) (A) (A) (A) (A) (A) (A)
                 (A) (A) (A) (A) (A) (A) (A) (A) (A) (A) (A) (A)
                 (A) (A) (A) (A) (A) (A) (A) (A) (A) (A) (A) (A)
                 (A) (A) (A) (A) (A) (A) (A) (A) (A) (A) (A) (A)
                 (A) (A) (A) (A) (A) (A) (A) (A) (A) (A) (A) (A)
                 (A) (A) (A) (A) (A) (A) (A) (A) (A) (A) (A) (A)
                 (A) (A) (A) (A) (A) (A) (A) (A) (A) (A) (A) (A)
                 (A) (A) (A) (A) (A) (A) (A) (A) (A) (A) (A) (A)
                 (A) (A) (A) (A) (A) (A) (A) (A) (A) (A) (A) (A)
                 (A) (A) (A) (A) (A) (A) (A) (A) (A) (A) (A) (A)
                 (A) (A) (A) (A) (A) (A) (A) (A) (A) (A) (A) (A)
                 (A) (A) (A) (A) (A) (A) (A) (A) (A) (A) (A) (A)
                 (A) (A) (A) (A) (A) (A) (A) (A) (A) (A) (A) (A)
                 (A) (A) (A) (A) (A) (A) (A) (A) (A) (A) (A) (A)
                 (A) (A) (A) (A) (A) (A) (A) (A) (A) (A) (A) (A)
                 (A) (A) (A) (A) (A) (A) (A) (A) (A) (A) (A) (A)
                 (A) (A) (A) (A) (A) (A) (A) (A) (A) (A) (A) (A)
                 (A) (A) (A) (A) (A) (A) (A) (A) (A) (A) (A) (A)
                 (A) (A) (A) (A) (A) (A) (A) (A) (A) (A) (A) (A)
                 (A) (A) (A) (A) (A) (A) (A) (A) (A) (A) (A) (A)
                 (A) (A) (A) (A) (A) (A) (A) (A) (A) (A) (A) (A)
                 (A) (A) (A) (A) (A) (A) (A) (A) (A) (A) (A) (A)
                 (A) (A) (A) (A) (A) (A) (A) (A) (A) (A) (A) (A)
                 (A) (A) (A) (A) (A) (A) (A) (A) (A) (A) (A) (A)
                 (A) (A) (A) (A) (A) (A) (A) (A) (A) (A) (A) (A)
                 (A) (A) (A) (A) (A) (A) (A) (A) (A) (A) (A) (A)
                 (A) (A) (A) (A) (A) (A) (A) (A) (A) (A) (A) (A)
                 (A) (A) (A) (A) (A) (A) (A) (A) (A) (A) (A) (A)
                 (A) (A) (A)
 Beta  Orbitals:
       Occupied  (A) (A) (A) (A) (A) (A) (A) (A) (A) (A) (A) (A)
                 (A) (A) (A) (A) (A) (A) (A) (A) (A) (A) (A) (A)
                 (A) (A) (A) (A) (A) (A) (A) (A) (A) (A) (A) (A)
                 (A) (A) (A) (A) (A) (A) (A) (A) (A) (A) (A) (A)
                 (A) (A) (A) (A) (A) (A) (A) (A) (A) (A) (A) (A)
                 (A) (A) (A) (A) (A) (A) (A) (A) (A) (A) (A) (A)
                 (A) (A) (A) (A) (A) (A) (A) (A) (A) (A) (A) (A)
                 (A) (A) (A) (A) (A) (A) (A) (A) (A) (A) (A) (A)
                 (A) (A) (A) (A) (A) (A) (A) (A) (A) (A) (A) (A)
                 (A) (A) (A) (A)
       Virtual   (A) (A) (A) (A) (A) (A) (A) (A) (A) (A) (A) (A)
                 (A) (A) (A) (A) (A) (A) (A) (A) (A) (A) (A) (A)
                 (A) (A) (A) (A) (A) (A) (A) (A) (A) (A) (A) (A)
                 (A) (A) (A) (A) (A) (A) (A) (A) (A) (A) (A) (A)
                 (A) (A) (A) (A) (A) (A) (A) (A) (A) (A) (A) (A)
                 (A) (A) (A) (A) (A) (A) (A) (A) (A) (A) (A) (A)
                 (A) (A) (A) (A) (A) (A) (A) (A) (A) (A) (A) (A)
                 (A) (A) (A) (A) (A) (A) (A) (A) (A) (A) (A) (A)
                 (A) (A) (A) (A) (A) (A) (A) (A) (A) (A) (A) (A)
                 (A) (A) (A) (A) (A) (A) (A) (A) (A) (A) (A) (A)
                 (A) (A) (A) (A) (A) (A) (A) (A) (A) (A) (A) (A)
                 (A) (A) (A) (A) (A) (A) (A) (A) (A) (A) (A) (A)
                 (A) (A) (A) (A) (A) (A) (A) (A) (A) (A) (A) (A)
                 (A) (A) (A) (A) (A) (A) (A) (A) (A) (A) (A) (A)
                 (A) (A) (A) (A) (A) (A) (A) (A) (A) (A) (A) (A)
                 (A) (A) (A) (A) (A) (A) (A) (A) (A) (A) (A) (A)
                 (A) (A) (A) (A) (A) (A) (A) (A) (A) (A) (A) (A)
                 (A) (A) (A) (A) (A) (A) (A) (A) (A) (A) (A) (A)
                 (A) (A) (A) (A) (A) (A) (A) (A) (A) (A) (A) (A)
                 (A) (A) (A) (A) (A) (A) (A) (A) (A) (A) (A) (A)
                 (A) (A) (A) (A) (A) (A) (A) (A) (A) (A) (A) (A)
                 (A) (A) (A) (A) (A) (A) (A) (A) (A) (A) (A) (A)
                 (A) (A) (A) (A) (A) (A) (A) (A) (A) (A) (A) (A)
                 (A) (A) (A) (A) (A) (A) (A) (A) (A) (A) (A) (A)
                 (A) (A) (A) (A) (A) (A) (A) (A) (A) (A) (A) (A)
                 (A) (A) (A) (A) (A) (A) (A) (A) (A) (A) (A) (A)
                 (A) (A) (A) (A) (A) (A) (A) (A) (A) (A) (A) (A)
                 (A) (A) (A) (A) (A) (A) (A) (A) (A) (A) (A) (A)
                 (A) (A) (A) (A) (A) (A) (A) (A) (A) (A) (A) (A)
                 (A) (A) (A) (A) (A) (A) (A) (A) (A) (A) (A) (A)
                 (A) (A) (A) (A) (A) (A) (A) (A) (A) (A) (A) (A)
                 (A) (A) (A) (A) (A) (A) (A) (A) (A) (A) (A) (A)
                 (A) (A) (A) (A) (A) (A) (A) (A) (A) (A) (A) (A)
                 (A) (A) (A) (A) (A) (A) (A) (A) (A) (A) (A) (A)
                 (A) (A) (A) (A) (A) (A) (A) (A) (A) (A) (A) (A)
                 (A) (A) (A) (A) (A) (A) (A) (A) (A) (A) (A) (A)
                 (A) (A) (A) (A) (A) (A) (A) (A) (A) (A) (A) (A)
                 (A) (A) (A) (A) (A) (A) (A) (A) (A) (A) (A) (A)
                 (A) (A) (A) (A) (A) (A) (A) (A) (A) (A) (A) (A)
                 (A) (A) (A) (A)
 The electronic state is 2-A.
 Alpha  occ. eigenvalues --  -77.26544 -19.25027 -19.16292 -19.12814 -14.44565
 Alpha  occ. eigenvalues --  -14.42155 -10.30769 -10.30303 -10.30192 -10.27857
 Alpha  occ. eigenvalues --  -10.27708 -10.27389 -10.26530 -10.26519 -10.26204
 Alpha  occ. eigenvalues --  -10.25614 -10.25466 -10.24875 -10.24431 -10.23616
 Alpha  occ. eigenvalues --  -10.23260 -10.23161 -10.23075 -10.22655 -10.20737
 Alpha  occ. eigenvalues --  -10.20211  -6.64404  -4.78052  -4.77976  -4.77710
 Alpha  occ. eigenvalues --   -3.03392  -1.87258  -1.85997  -1.85606  -1.11332
 Alpha  occ. eigenvalues --   -1.01477  -0.97050  -0.90074  -0.87146  -0.86443
 Alpha  occ. eigenvalues --   -0.85483  -0.84504  -0.83816  -0.78031  -0.77977
 Alpha  occ. eigenvalues --   -0.75146  -0.72372  -0.71694  -0.71060  -0.70976
 Alpha  occ. eigenvalues --   -0.69442  -0.67114  -0.66585  -0.64048  -0.62944
 Alpha  occ. eigenvalues --   -0.57767  -0.57271  -0.55287  -0.54681  -0.54154
 Alpha  occ. eigenvalues --   -0.52887  -0.51431  -0.50467  -0.49534  -0.48510
 Alpha  occ. eigenvalues --   -0.47483  -0.47147  -0.46415  -0.45868  -0.45485
 Alpha  occ. eigenvalues --   -0.45017  -0.44678  -0.44629  -0.44026  -0.43765
 Alpha  occ. eigenvalues --   -0.43223  -0.42916  -0.42455  -0.42166  -0.41637
 Alpha  occ. eigenvalues --   -0.41430  -0.40606  -0.40207  -0.39968  -0.39752
 Alpha  occ. eigenvalues --   -0.39419  -0.38751  -0.38259  -0.38242  -0.37296
 Alpha  occ. eigenvalues --   -0.36946  -0.36345  -0.35923  -0.35759  -0.35543
 Alpha  occ. eigenvalues --   -0.34623  -0.34239  -0.34016  -0.33798  -0.33541
 Alpha  occ. eigenvalues --   -0.32770  -0.30501  -0.30169  -0.29008  -0.28174
 Alpha  occ. eigenvalues --   -0.27905  -0.27127  -0.26949  -0.25756  -0.25669
 Alpha  occ. eigenvalues --   -0.20670  -0.19711  -0.16401
 Alpha virt. eigenvalues --   -0.05169  -0.03923  -0.03083   0.00904   0.02330
 Alpha virt. eigenvalues --    0.03070   0.03528   0.03679   0.04826   0.05355
 Alpha virt. eigenvalues --    0.06046   0.06835   0.07163   0.07830   0.08430
 Alpha virt. eigenvalues --    0.08489   0.09411   0.09653   0.10276   0.11104
 Alpha virt. eigenvalues --    0.11279   0.12139   0.12324   0.12675   0.12929
 Alpha virt. eigenvalues --    0.13182   0.13698   0.13962   0.14071   0.14257
 Alpha virt. eigenvalues --    0.14954   0.15353   0.15545   0.15643   0.16075
 Alpha virt. eigenvalues --    0.16579   0.17024   0.17491   0.17598   0.18289
 Alpha virt. eigenvalues --    0.18674   0.19140   0.19614   0.19774   0.19973
 Alpha virt. eigenvalues --    0.20129   0.20283   0.20654   0.21018   0.21197
 Alpha virt. eigenvalues --    0.21599   0.22366   0.22417   0.22609   0.23510
 Alpha virt. eigenvalues --    0.23612   0.24122   0.24521   0.25042   0.25714
 Alpha virt. eigenvalues --    0.26113   0.26743   0.27131   0.27596   0.28014
 Alpha virt. eigenvalues --    0.28129   0.29276   0.30214   0.30546   0.30764
 Alpha virt. eigenvalues --    0.31869   0.32220   0.33046   0.34283   0.35981
 Alpha virt. eigenvalues --    0.37377   0.38619   0.38939   0.40866   0.41450
 Alpha virt. eigenvalues --    0.41616   0.41936   0.42527   0.43648   0.43855
 Alpha virt. eigenvalues --    0.44218   0.44908   0.46208   0.46317   0.47470
 Alpha virt. eigenvalues --    0.48005   0.48380   0.48989   0.49209   0.50210
 Alpha virt. eigenvalues --    0.50354   0.51773   0.52151   0.52281   0.52997
 Alpha virt. eigenvalues --    0.53882   0.54206   0.54739   0.55349   0.55665
 Alpha virt. eigenvalues --    0.56761   0.57114   0.57280   0.57459   0.58838
 Alpha virt. eigenvalues --    0.59247   0.59585   0.60093   0.60266   0.61245
 Alpha virt. eigenvalues --    0.61539   0.62251   0.62461   0.62633   0.62952
 Alpha virt. eigenvalues --    0.63522   0.63964   0.64191   0.64554   0.64898
 Alpha virt. eigenvalues --    0.65123   0.65580   0.65634   0.65735   0.66183
 Alpha virt. eigenvalues --    0.66273   0.66499   0.67028   0.67252   0.67469
 Alpha virt. eigenvalues --    0.68165   0.68417   0.68593   0.69120   0.69446
 Alpha virt. eigenvalues --    0.69578   0.70367   0.71156   0.71488   0.71842
 Alpha virt. eigenvalues --    0.71910   0.72580   0.73004   0.73117   0.73183
 Alpha virt. eigenvalues --    0.73759   0.74219   0.74515   0.74766   0.75095
 Alpha virt. eigenvalues --    0.75605   0.75984   0.76433   0.76934   0.78129
 Alpha virt. eigenvalues --    0.78564   0.78678   0.79222   0.79511   0.80201
 Alpha virt. eigenvalues --    0.80843   0.81031   0.82491   0.82782   0.83720
 Alpha virt. eigenvalues --    0.83849   0.84268   0.84708   0.85245   0.86124
 Alpha virt. eigenvalues --    0.86162   0.86950   0.87878   0.88139   0.89127
 Alpha virt. eigenvalues --    0.89465   0.90700   0.90904   0.91449   0.92326
 Alpha virt. eigenvalues --    0.92982   0.93770   0.94304   0.95018   0.95870
 Alpha virt. eigenvalues --    0.96511   0.96930   0.97651   0.98273   0.99027
 Alpha virt. eigenvalues --    0.99264   0.99781   1.01126   1.01653   1.02256
 Alpha virt. eigenvalues --    1.02659   1.03717   1.04790   1.05834   1.07063
 Alpha virt. eigenvalues --    1.08420   1.10142   1.10708   1.11803   1.12428
 Alpha virt. eigenvalues --    1.13124   1.13870   1.15740   1.16083   1.17102
 Alpha virt. eigenvalues --    1.17642   1.18845   1.20007   1.20882   1.21488
 Alpha virt. eigenvalues --    1.22505   1.23198   1.23996   1.24792   1.26302
 Alpha virt. eigenvalues --    1.27689   1.28233   1.28554   1.29612   1.29872
 Alpha virt. eigenvalues --    1.30927   1.32159   1.32547   1.32825   1.33534
 Alpha virt. eigenvalues --    1.34185   1.34582   1.35080   1.35560   1.36081
 Alpha virt. eigenvalues --    1.37030   1.37649   1.38181   1.39140   1.40301
 Alpha virt. eigenvalues --    1.41381   1.41638   1.42103   1.42519   1.43078
 Alpha virt. eigenvalues --    1.43384   1.44039   1.44274   1.44801   1.45248
 Alpha virt. eigenvalues --    1.45922   1.46090   1.46394   1.46778   1.47629
 Alpha virt. eigenvalues --    1.48138   1.48893   1.49661   1.50060   1.50500
 Alpha virt. eigenvalues --    1.51398   1.51913   1.52120   1.53273   1.53641
 Alpha virt. eigenvalues --    1.54086   1.54399   1.55329   1.56855   1.57636
 Alpha virt. eigenvalues --    1.57998   1.58799   1.59720   1.59907   1.60993
 Alpha virt. eigenvalues --    1.61461   1.62003   1.62475   1.63023   1.63161
 Alpha virt. eigenvalues --    1.64325   1.65124   1.65482   1.65642   1.65930
 Alpha virt. eigenvalues --    1.66293   1.66752   1.67390   1.67937   1.68404
 Alpha virt. eigenvalues --    1.68807   1.69195   1.69574   1.69892   1.70822
 Alpha virt. eigenvalues --    1.70916   1.71734   1.71812   1.72059   1.72823
 Alpha virt. eigenvalues --    1.73065   1.73246   1.73895   1.74443   1.74605
 Alpha virt. eigenvalues --    1.74899   1.75400   1.76112   1.76147   1.76354
 Alpha virt. eigenvalues --    1.76888   1.77518   1.77965   1.78519   1.79286
 Alpha virt. eigenvalues --    1.79752   1.80014   1.80467   1.81181   1.81473
 Alpha virt. eigenvalues --    1.81909   1.83007   1.83244   1.83824   1.84634
 Alpha virt. eigenvalues --    1.85174   1.86189   1.86412   1.86875   1.87757
 Alpha virt. eigenvalues --    1.88560   1.89114   1.89830   1.90197   1.90639
 Alpha virt. eigenvalues --    1.90797   1.92287   1.92390   1.94311   1.95319
 Alpha virt. eigenvalues --    1.96132   1.96595   1.97191   1.97583   1.98554
 Alpha virt. eigenvalues --    1.99000   1.99316   2.00042   2.00211   2.01342
 Alpha virt. eigenvalues --    2.02292   2.02465   2.03111   2.03921   2.04475
 Alpha virt. eigenvalues --    2.05829   2.06328   2.06562   2.07412   2.07516
 Alpha virt. eigenvalues --    2.08386   2.08725   2.08921   2.09484   2.09830
 Alpha virt. eigenvalues --    2.11422   2.12723   2.13338   2.14905   2.15279
 Alpha virt. eigenvalues --    2.17548   2.18376   2.20445   2.20931   2.21622
 Alpha virt. eigenvalues --    2.22253   2.23385   2.23673   2.24118   2.24828
 Alpha virt. eigenvalues --    2.25229   2.25942   2.26369   2.27047   2.27924
 Alpha virt. eigenvalues --    2.28929   2.30259   2.30621   2.31624   2.33037
 Alpha virt. eigenvalues --    2.36039   2.38410   2.39407   2.40109   2.40481
 Alpha virt. eigenvalues --    2.40805   2.41505   2.41844   2.42135   2.43588
 Alpha virt. eigenvalues --    2.44129   2.44382   2.45545   2.46012   2.46555
 Alpha virt. eigenvalues --    2.47336   2.48214   2.48405   2.49040   2.49783
 Alpha virt. eigenvalues --    2.50023   2.50847   2.51057   2.51456   2.52064
 Alpha virt. eigenvalues --    2.53286   2.53644   2.54473   2.54614   2.55736
 Alpha virt. eigenvalues --    2.56425   2.56760   2.56931   2.57095   2.58485
 Alpha virt. eigenvalues --    2.58844   2.60090   2.60661   2.62379   2.63185
 Alpha virt. eigenvalues --    2.64317   2.64937   2.66738   2.67536   2.68260
 Alpha virt. eigenvalues --    2.68949   2.69869   2.70590   2.71534   2.72826
 Alpha virt. eigenvalues --    2.73919   2.75407   2.77121   2.78196   2.79266
 Alpha virt. eigenvalues --    2.80322   2.81970   2.82756   2.83867   2.85641
 Alpha virt. eigenvalues --    2.86772   2.92293   2.95958   3.01941   3.03386
 Alpha virt. eigenvalues --    3.04400   3.11625   3.12485   3.15616   3.49392
 Alpha virt. eigenvalues --    3.57938   3.83783  34.72058  34.82102  34.93814
 Alpha virt. eigenvalues --   45.94861
  Beta  occ. eigenvalues --  -77.26543 -19.24978 -19.13754 -19.12809 -14.44529
  Beta  occ. eigenvalues --  -14.42156 -10.30774 -10.30296 -10.30200 -10.27856
  Beta  occ. eigenvalues --  -10.27713 -10.27389 -10.26526 -10.26515 -10.26205
  Beta  occ. eigenvalues --  -10.25614 -10.25468 -10.24870 -10.24431 -10.23615
  Beta  occ. eigenvalues --  -10.23260 -10.23161 -10.23075 -10.22655 -10.20737
  Beta  occ. eigenvalues --  -10.20203  -6.64403  -4.78051  -4.77975  -4.77707
  Beta  occ. eigenvalues --   -3.03356  -1.87196  -1.86023  -1.85518  -1.11255
  Beta  occ. eigenvalues --   -1.01448  -0.97047  -0.90037  -0.86590  -0.85505
  Beta  occ. eigenvalues --   -0.84555  -0.83819  -0.79057  -0.77981  -0.77957
  Beta  occ. eigenvalues --   -0.75120  -0.72371  -0.71693  -0.71055  -0.70972
  Beta  occ. eigenvalues --   -0.69420  -0.67109  -0.66580  -0.64037  -0.62939
  Beta  occ. eigenvalues --   -0.57756  -0.57269  -0.55159  -0.54665  -0.54146
  Beta  occ. eigenvalues --   -0.52875  -0.51423  -0.50442  -0.49530  -0.48503
  Beta  occ. eigenvalues --   -0.47475  -0.47141  -0.46406  -0.45849  -0.45439
  Beta  occ. eigenvalues --   -0.45005  -0.44669  -0.44606  -0.43882  -0.43723
  Beta  occ. eigenvalues --   -0.43047  -0.42847  -0.42364  -0.42157  -0.41606
  Beta  occ. eigenvalues --   -0.41417  -0.40600  -0.40073  -0.39881  -0.39742
  Beta  occ. eigenvalues --   -0.39397  -0.38736  -0.38246  -0.38236  -0.37181
  Beta  occ. eigenvalues --   -0.36933  -0.36336  -0.35896  -0.35758  -0.35133
  Beta  occ. eigenvalues --   -0.34600  -0.34182  -0.34009  -0.33686  -0.33493
  Beta  occ. eigenvalues --   -0.32638  -0.30419  -0.29198  -0.28037  -0.27439
  Beta  occ. eigenvalues --   -0.26984  -0.26080  -0.25659  -0.24201  -0.21497
  Beta  occ. eigenvalues --   -0.18103  -0.16389
  Beta virt. eigenvalues --   -0.05282  -0.04275  -0.03869  -0.03012   0.00955
  Beta virt. eigenvalues --    0.02609   0.03342   0.03610   0.04097   0.04860
  Beta virt. eigenvalues --    0.05522   0.06133   0.06945   0.07166   0.07845
  Beta virt. eigenvalues --    0.08458   0.08556   0.09430   0.09657   0.10299
  Beta virt. eigenvalues --    0.11122   0.11282   0.12178   0.12335   0.12694
  Beta virt. eigenvalues --    0.12994   0.13345   0.13761   0.14061   0.14137
  Beta virt. eigenvalues --    0.14273   0.15007   0.15362   0.15660   0.15693
  Beta virt. eigenvalues --    0.16133   0.16586   0.17078   0.17504   0.17611
  Beta virt. eigenvalues --    0.18317   0.18719   0.19160   0.19646   0.19805
  Beta virt. eigenvalues --    0.19994   0.20164   0.20295   0.20697   0.21072
  Beta virt. eigenvalues --    0.21211   0.21612   0.22398   0.22435   0.22639
  Beta virt. eigenvalues --    0.23524   0.23650   0.24170   0.24569   0.25089
  Beta virt. eigenvalues --    0.25772   0.26251   0.26803   0.27161   0.27648
  Beta virt. eigenvalues --    0.28028   0.28174   0.29489   0.30303   0.30607
  Beta virt. eigenvalues --    0.30827   0.32231   0.32279   0.33101   0.34423
  Beta virt. eigenvalues --    0.36077   0.37592   0.38668   0.39022   0.40909
  Beta virt. eigenvalues --    0.41473   0.41672   0.41950   0.42672   0.43689
  Beta virt. eigenvalues --    0.43879   0.44276   0.44946   0.46217   0.46408
  Beta virt. eigenvalues --    0.47504   0.48038   0.48464   0.49050   0.49246
  Beta virt. eigenvalues --    0.50248   0.50359   0.51816   0.52187   0.52298
  Beta virt. eigenvalues --    0.53039   0.53893   0.54248   0.54750   0.55410
  Beta virt. eigenvalues --    0.55724   0.56774   0.57136   0.57349   0.57519
  Beta virt. eigenvalues --    0.58858   0.59254   0.59603   0.60137   0.60438
  Beta virt. eigenvalues --    0.61261   0.61555   0.62307   0.62468   0.62661
  Beta virt. eigenvalues --    0.63064   0.63567   0.63977   0.64325   0.64560
  Beta virt. eigenvalues --    0.64909   0.65157   0.65612   0.65667   0.65778
  Beta virt. eigenvalues --    0.66193   0.66291   0.66512   0.67053   0.67274
  Beta virt. eigenvalues --    0.67488   0.68192   0.68446   0.68649   0.69140
  Beta virt. eigenvalues --    0.69480   0.69610   0.70385   0.71167   0.71508
  Beta virt. eigenvalues --    0.71852   0.71928   0.72596   0.73018   0.73141
  Beta virt. eigenvalues --    0.73196   0.73784   0.74240   0.74530   0.74791
  Beta virt. eigenvalues --    0.75117   0.75616   0.76022   0.76449   0.76948
  Beta virt. eigenvalues --    0.78172   0.78591   0.78687   0.79288   0.79526
  Beta virt. eigenvalues --    0.80211   0.80865   0.81050   0.82525   0.82819
  Beta virt. eigenvalues --    0.83738   0.83897   0.84292   0.84718   0.85281
  Beta virt. eigenvalues --    0.86173   0.86269   0.86993   0.87915   0.88206
  Beta virt. eigenvalues --    0.89149   0.89515   0.90742   0.90914   0.91465
  Beta virt. eigenvalues --    0.92341   0.93009   0.93772   0.94321   0.95121
  Beta virt. eigenvalues --    0.95927   0.96558   0.96979   0.97702   0.98293
  Beta virt. eigenvalues --    0.99092   0.99348   0.99836   1.01159   1.01717
  Beta virt. eigenvalues --    1.02324   1.02912   1.03771   1.04816   1.05936
  Beta virt. eigenvalues --    1.07140   1.08494   1.10198   1.10771   1.11913
  Beta virt. eigenvalues --    1.12714   1.13266   1.13920   1.15773   1.16388
  Beta virt. eigenvalues --    1.17164   1.18185   1.19624   1.20248   1.21409
  Beta virt. eigenvalues --    1.21911   1.22648   1.23734   1.24154   1.24918
  Beta virt. eigenvalues --    1.26346   1.27804   1.28388   1.29175   1.29704
  Beta virt. eigenvalues --    1.29958   1.31198   1.32304   1.32762   1.33325
  Beta virt. eigenvalues --    1.33596   1.34277   1.34730   1.35491   1.35654
  Beta virt. eigenvalues --    1.36403   1.37119   1.37985   1.38729   1.39158
  Beta virt. eigenvalues --    1.40677   1.41444   1.41763   1.42144   1.42600
  Beta virt. eigenvalues --    1.43115   1.43423   1.44050   1.44309   1.44870
  Beta virt. eigenvalues --    1.45395   1.45929   1.46158   1.46420   1.46786
  Beta virt. eigenvalues --    1.47658   1.48188   1.49040   1.49704   1.50225
  Beta virt. eigenvalues --    1.50611   1.51465   1.51918   1.52150   1.53312
  Beta virt. eigenvalues --    1.53663   1.54099   1.54426   1.55409   1.57000
  Beta virt. eigenvalues --    1.57730   1.58192   1.58860   1.59857   1.59958
  Beta virt. eigenvalues --    1.61010   1.61483   1.62042   1.62491   1.63038
  Beta virt. eigenvalues --    1.63303   1.64372   1.65187   1.65491   1.65700
  Beta virt. eigenvalues --    1.65954   1.66320   1.66771   1.67428   1.68019
  Beta virt. eigenvalues --    1.68496   1.68821   1.69236   1.69598   1.69900
  Beta virt. eigenvalues --    1.70827   1.70936   1.71752   1.71857   1.72142
  Beta virt. eigenvalues --    1.72864   1.73091   1.73257   1.73907   1.74459
  Beta virt. eigenvalues --    1.74623   1.74908   1.75421   1.76124   1.76160
  Beta virt. eigenvalues --    1.76366   1.76925   1.77547   1.77996   1.78537
  Beta virt. eigenvalues --    1.79298   1.79760   1.80023   1.80496   1.81222
  Beta virt. eigenvalues --    1.81518   1.81976   1.83047   1.83291   1.83835
  Beta virt. eigenvalues --    1.84646   1.85256   1.86215   1.86419   1.86887
  Beta virt. eigenvalues --    1.87783   1.88574   1.89133   1.89887   1.90259
  Beta virt. eigenvalues --    1.90690   1.90827   1.92310   1.92427   1.94337
  Beta virt. eigenvalues --    1.95354   1.96155   1.96633   1.97227   1.97604
  Beta virt. eigenvalues --    1.98563   1.99013   1.99325   2.00065   2.00254
  Beta virt. eigenvalues --    2.01363   2.02317   2.02517   2.03174   2.04014
  Beta virt. eigenvalues --    2.04509   2.05849   2.06336   2.06577   2.07455
  Beta virt. eigenvalues --    2.07533   2.08439   2.08762   2.08933   2.09522
  Beta virt. eigenvalues --    2.09954   2.11513   2.12783   2.13405   2.14973
  Beta virt. eigenvalues --    2.15324   2.17566   2.18390   2.20550   2.21121
  Beta virt. eigenvalues --    2.21693   2.22274   2.23444   2.23734   2.24129
  Beta virt. eigenvalues --    2.24977   2.25295   2.26043   2.26448   2.27188
  Beta virt. eigenvalues --    2.27944   2.29096   2.30535   2.30669   2.31820
  Beta virt. eigenvalues --    2.33293   2.36286   2.38421   2.39458   2.40114
  Beta virt. eigenvalues --    2.40538   2.40812   2.41543   2.41866   2.42150
  Beta virt. eigenvalues --    2.43604   2.44137   2.44425   2.45563   2.46015
  Beta virt. eigenvalues --    2.46595   2.47345   2.48236   2.48420   2.49076
[...]
 0.00007413,0.00015458,0.00002019,0.00014416,-0.00001199,-0.00007432,-0
 .00003483,0.00000358,0.00000715,-0.00000167,0.00000213,-0.00000559,0.0
 0000044,-0.00000619,0.00002339,-0.00004445,0.00004385,0.00011955,0.000
 42239,-0.00015343,-0.00001424,0.00000613,-0.00000855,0.00002191,0.0000
 0094,0.00001250,0.00000757,-0.00000161,0.00002978,0.00001012,0.0000126
 8,0.00378315,-0.00292851,0.00011175,0.00009445,0.00010702,-0.00022593,
 -0.00011639,0.00000937,-0.00001271,-0.00001669,0.00000494,0.00003393,-
 0.00167470,0.00020889,-0.00071366,-0.00001067,0.00003728,-0.00001730,-
 0.00941446,-0.01124835,-0.02212615,0.00065463,-0.00038869,-0.00027636,
 -0.00018162,0.00023847,-0.00003786,-0.00007970,-0.00019863,0.00003094,
 -0.03307172,-0.06021783,-0.05926023,-0.00129921,0.00029946,0.00056280,
 -0.00137453,0.00094577,-0.00178602,0.00010085,0.00013389,-0.00088334,0
 .00005724,-0.00000036,0.00062709,0.00000857,-0.00000510,-0.00001048,0.
 00000214,-0.00000184,-0.00001685,0.00000808,-0.00000171,-0.00000079,0.
 00000680,-0.00000091,0.00000356,-0.00000135,0.00000443,-0.00000203,-0.
 00002034,-0.00000869,0.00001044,-0.00001839,0.00001908,0.00004768,0.00
 000420,-0.00000510,-0.00001030,-0.00004656,0.00008191,-0.00002387,0.00
 001646,0.00000457,-0.00000382,-0.00000024,0.00000063,0.00000016,-0.000
 00358,-0.00000166,0.00000244,-0.00000520,0.00000053,-0.00000147,-0.000
 00583,0.00000370,0.00000290,0.00000006,0.00000065,0.00000129,-0.000146
 55,-0.00012738,-0.00022080,0.00000111,0.00003437,-0.00001390,0.0000384
 2,0.00003272,-0.00001165,0.00003141,-0.00003897,0.00002917,-0.00003049
 ,-0.00002408,0.00001647,0.00007837,0.00002447,0.00004429,0.00007831,0.
 00003143,-0.00005863,0.00005076,0.00004464,0.00000466,0.00000580,0.000
 02036,-0.00002413,-0.00012107,-0.00001147,0.00030097,0.00041027,0.0005
 7227,0.00024866,0.00006767,0.00000173,0.00013944,0.00005726,0.00043310
 ,0.00024514,-0.00010880,-0.00010247,0.00001986,0.00070362,-0.00013854,
 0.00082546,0.03268345,0.06812956,0.00020680,0.00010703,-0.00003251,-0.
 00006923,0.00013728,0.00000764,0.00021727,-0.00018701,-0.00018832,-0.0
 0009450,-0.00010171,0.00007635,0.00016773,-0.00002340,-0.00006456,-0.0
 0019099,0.00002660,0.00000355,0.00000663,-0.00001332,-0.00002165,-0.00
 001163,-0.00000593,-0.00000487,-0.00001582,0.00001590,-0.00000610,0.00
 000533,-0.00002315,0.00001394,-0.00010191,-0.00014619,0.00013318,-0.00
 014683,-0.00000976,0.00001530,-0.00001409,0.00000899,0.00000169,-0.000
 00401,-0.00002238,0.00000204,-0.00001349,-0.00000196,0.00002594,0.0027
 2441,-0.00062362,0.00001658,-0.00006403,0.00000484,0.00015232,0.000163
 50,0.00027384,0.00026115,0.00001053,0.00000606,0.00003374,-0.00133069,
 0.00013608,-0.00009035,0.00001522,0.00004129,-0.00003791,-0.00556934,-
 0.00563465,-0.01326811,0.00048825,-0.00026976,-0.00020972,-0.00007408,
 0.00007912,-0.00007021,-0.00009463,-0.00010977,0.00001871,-0.10574102,
 -0.05985456,-0.23702725,-0.00129150,0.00030265,0.00011926,-0.00028744,
 0.00195529,0.00101439,-0.00000376,-0.00004700,-0.00062986,-0.00001223,
 -0.00001783,0.00043036,0.00000572,-0.00000272,0.00000518,-0.00000190,-
 0.00000017,-0.00001138,0.00000998,-0.00000705,0.00000263,0.00000858,-0
 .00000395,-0.00000078,-0.00000041,-0.00000478,0.00000641,-0.00002128,-
 0.00000536,0.00000832,-0.00002754,-0.00008082,0.00000787,-0.00000426,0
 .00001363,-0.00000801,-0.00008687,-0.00005967,0.00009556,0.00002133,0.
 00001313,-0.00001317,-0.00000080,0.00000105,-0.00000332,-0.00000384,-0
 .00000693,0.00000461,-0.00000428,0.00000068,-0.00000467,0.00000117,0.0
 0000287,0.00000238,-0.00000422,-0.00000356,0.00000347,-0.00008179,-0.0
 0010747,-0.00014093,0.00000768,0.00002394,0.00002068,0.00002629,0.0000
 3049,0.00000078,0.00004977,-0.00005753,0.00002301,-0.00001045,-0.00000
 725,0.00001080,0.00007063,0.00000770,0.00005364,0.00005810,0.00000205,
 -0.00002970,0.00005551,0.00004142,-0.00000676,0.00000461,0.00001567,0.
 00001941,0.00012208,0.00024438,0.00048784,0.00104528,0.00015444,0.0002
 0957,-0.00007596,-0.00005990,0.00000862,0.00023568,0.00031922,0.000230
 12,0.00003069,-0.00000530,-0.00003000,0.00011601,-0.00047277,0.0007539
 7,0.11372730,0.06765073,0.25615776,-0.00050867,-0.00018304,-0.00061193
 ,0.00011714,-0.00004131,-0.00014329,-0.00009465,0.00000558,0.00013337,
 0.00000251,0.00006027,0.00004746,0.00000794,-0.00003143,-0.00000209,0.
 00004659,-0.00006888,0.00000080,0.00001023,-0.00001536,-0.00000860,0.0
 0000491,0.00000639,0.00001085,0.00000060,-0.00000247,0.00000551,-0.000
 01109,0.00000805,-0.00000141,0.00007647,0.00002007,0.00018820,0.000071
 07,-0.00002415,0.00001039,0.00001622,-0.00000292,0.00002080,-0.0000151
 1,-0.00002318,0.00002388,0.00002353,-0.00003493,-0.00000498,-0.0003628
 9,-0.00023451,-0.00032606,-0.00001977,0.00005512,-0.00003611,-0.000701
 21,-0.00038420,-0.00046521,0.00001474,0.00001806,-0.00001159,0.0000335
 1,0.00018401,0.00007346,0.00000573,-0.00000433,0.00001618,-0.01261329,
 -0.00510114,0.00221070,-0.00000479,0.00000801,0.00002148,-0.00003822,-
 0.00003312,-0.00007584,-0.00003691,-0.00011184,-0.00007754,-0.29365112
 ,-0.06513739,0.05757852,-0.00102016,0.00384496,0.00107772,0.00035505,-
 0.00090281,0.00012839,-0.00018761,-0.00104635,0.00026708,-0.00062129,-
 0.00078896,-0.00010330,0.00000467,0.00000394,0.00000755,-0.00000108,-0
 .00000447,-0.00000037,-0.00000400,-0.00000612,-0.00000046,0.00000878,-
 0.00000057,-0.00000385,-0.00000905,0.00000769,-0.00000471,0.00000320,0
 .00000248,-0.00000292,0.00001146,-0.00000316,-0.00004211,-0.00000437,-
 0.00000794,-0.00000554,0.00008120,0.00000417,-0.00009580,0.00000129,-0
 .00001078,0.00003354,-0.00000112,-0.00000101,-0.00000260,-0.00000127,0
 .00000164,0.00000103,0.00000133,0.00000071,-0.00000015,0.00000192,0.00
 000062,-0.00000021,0.00000059,0.00000079,-0.00000066,0.00000435,0.0000
 1394,-0.00001070,-0.00001768,0.00000801,-0.00000245,0.00001063,-0.0000
 0372,0.00002077,0.00001917,0.00000319,0.00000730,0.00001474,0.00002037
 ,0.00001277,0.00003824,-0.00003949,0.00003162,0.00003840,0.00003060,0.
 00000713,0.00006560,0.00001731,-0.00003607,0.00001192,0.00000766,0.000
 01882,-0.00084391,-0.00048639,0.00044237,0.00046996,0.00009994,0.00003
 426,0.00010549,-0.00013477,0.00002685,0.00027603,0.00006087,0.00000670
 ,0.00010756,0.00054807,-0.00024334,-0.00010850,0.00002701,0.00004889,-
 0.01123280,-0.00282147,0.00407393,0.31768732,-0.00021687,0.00050038,-0
 .00053833,0.00032509,-0.00006566,-0.00001981,-0.00040810,-0.00011045,0
 .00033698,0.00001625,-0.00004040,-0.00000716,0.00007017,-0.00014495,-0
 .00001446,-0.00009367,-0.00007437,-0.00001105,0.00002855,0.00009849,0.
 00006150,0.00001968,-0.00000339,0.00001352,-0.00000021,-0.00000424,0.0
 0000875,-0.00000712,0.00001959,-0.00003561,-0.00032688,-0.00015521,0.0
 0005485,0.00000039,-0.00001849,-0.00004558,0.00001360,-0.00003526,-0.0
 0000172,0.00000587,0.00005628,-0.00001758,0.00009516,0.00008918,-0.000
 03433,0.00108266,0.00086219,-0.00082078,0.00009731,-0.00003414,-0.0000
 0995,0.00005629,0.00027150,0.00076398,0.00000313,-0.00002356,-0.000022
 73,0.00000291,-0.00013664,0.00009075,-0.00000626,-0.00002948,-0.000017
 20,0.02306916,0.00769423,-0.00383760,-0.00005655,0.00000677,0.00001627
 ,0.00003655,-0.00001287,0.00005235,0.00001184,0.00012461,0.00006095,-0
 .06753337,-0.06373213,0.01662024,0.00231307,-0.00418226,-0.00205202,0.
 00009561,0.00161575,-0.00036422,-0.00153032,-0.00186611,-0.00217258,-0
 .00029622,-0.00041388,0.00142433,-0.00002872,0.00001121,0.00001173,-0.
 00000202,0.00000669,0.00000923,-0.00002931,0.00000221,-0.00002152,-0.0
 0002042,-0.00000144,0.00000651,0.00001125,-0.00001894,0.00001696,0.000
 03255,0.00000473,-0.00000282,0.00006319,0.00007869,0.00004943,0.000036
 51,0.00001269,0.00000531,-0.00005338,-0.00014341,0.00037727,-0.0000408
 4,-0.00001250,-0.00001868,0.00000431,0.00000081,0.00000535,0.00000566,
 0.00000003,-0.00000663,0.00000346,-0.00000150,0.00000265,0.00001304,-0
 .00001018,-0.00000378,0.00000267,-0.00000077,-0.00000184,-0.00001586,0
 .00001526,0.00002025,0.00002335,-0.00000055,-0.00001874,0.00001373,-0.
 00002126,-0.00002447,-0.00001560,0.00000552,-0.00000300,-0.00000972,-0
 .00001779,-0.00000547,-0.00001795,0.00004810,-0.00002233,-0.00004069,-
 0.00002018,0.00001928,-0.00003931,-0.00002330,0.00005453,-0.00001451,-
 0.00001496,-0.00001685,0.00167914,0.00057614,-0.00063628,-0.00006917,-
 0.00021037,0.00014551,0.00004951,0.00008077,-0.00028720,-0.00026222,0.
 00006964,-0.00011718,-0.00019110,-0.00033248,0.00022095,-0.00005380,-0
 .00007850,-0.00001058,-0.00629636,-0.00287366,0.00228398,0.07105916,0.
 06807761,-0.00016911,-0.00002931,-0.00002562,-0.00063614,0.00016719,0.
 00009861,0.00049758,0.00033023,-0.00067523,-0.00001053,-0.00011296,-0.
 00001787,0.00005047,0.00000626,-0.00003256,-0.00002616,0.00013136,0.00
 001013,-0.00003275,-0.00004921,0.00003082,0.00001733,-0.00002185,0.000
 00687,0.00000937,-0.00000579,0.00001204,-0.00000056,-0.00005343,0.0000
 4534,0.00003399,0.00008839,-0.00019235,0.00002829,-0.00000167,-0.00000
 577,0.00003612,0.00001265,-0.00000324,0.00000412,0.00002553,0.00000969
 ,-0.00016043,-0.00002952,-0.00001741,0.00167068,0.00005622,-0.00044227
 ,-0.00007947,-0.00014922,0.00016431,0.00033302,0.00053746,-0.00060784,
 -0.00001282,-0.00000374,-0.00002737,-0.00005582,-0.00011766,0.00000383
 ,-0.00003299,-0.00003804,0.00007219,0.01167865,0.00437243,-0.00477580,
 -0.00004765,-0.00000842,0.00005396,0.00003155,0.00001337,0.00009756,0.
 00002088,0.00012665,0.00007143,0.05631710,0.01562666,-0.05626861,0.000
 97057,-0.00305261,-0.00100457,-0.00076053,0.00028389,0.00002416,-0.000
 57247,-0.00073340,0.00306163,0.00003809,-0.00010982,-0.00189725,0.0000
 1222,0.00001556,-0.00001269,0.00000477,-0.00000539,-0.00000457,-0.0000
 0125,-0.00000563,-0.00000359,-0.00000923,-0.00000616,-0.00000717,0.000
 00634,0.00000512,-0.00000443,0.00001850,0.00000405,-0.00000810,-0.0000
 2440,0.00034123,0.00000557,-0.00000467,-0.00002115,0.00001536,-0.00008
 230,-0.00006969,0.00024905,-0.00003981,-0.00001909,0.00003375,0.000007
 76,-0.00000234,-0.00000097,0.00000843,0.00001288,-0.00000436,0.0000044
 6,-0.00000038,0.00000665,-0.00000122,-0.00000103,-0.00000100,0.0000110
 8,0.00000580,-0.00000330,-0.00001913,0.00002983,0.00001050,0.00000634,
 0.00000887,-0.00003417,0.00002813,-0.00001753,-0.00002024,-0.00002885,
 0.00001713,-0.00002230,0.00001953,-0.00000812,-0.00000161,-0.00005801,
 0.00003018,-0.00002841,-0.00004876,-0.00002251,0.00001791,-0.00004552,
 -0.00001071,0.00003897,-0.00000751,-0.00000257,-0.00001580,0.00117824,
 0.00021452,0.00030348,0.00017689,0.00016733,0.00024440,-0.00035783,-0.
 00009167,0.00022739,0.00000960,-0.00007215,-0.00014366,-0.00001010,0.0
 0006105,0.00040941,-0.00012279,-0.00010168,0.00000569,-0.02531707,-0.0
 0660680,0.00642106,-0.06265747,-0.01483619,0.05894131,-0.00021483,-0.0
 0035924,0.00031796,-0.00008823,-0.00012902,0.00008556,-0.00012235,-0.0
 0025128,-0.00095111,0.00004399,0.00013920,-0.00005891,-0.00029230,0.00
 014507,0.00015957,0.00012122,0.00027329,-0.00018472,-0.00003458,-0.000
 07843,-0.00002715,0.00000820,0.00000263,-0.00000716,0.00000673,-0.0000
 0961,-0.00001528,0.00001721,-0.00000841,-0.00003043,0.00039612,-0.0000
 1754,-0.00035278,0.00000820,0.00003465,0.00000070,0.00000139,0.0000235
 5,-0.00000660,0.00004374,0.00002468,-0.00000117,-0.00017696,-0.0000591
 0,-0.00000262,0.00009497,-0.00037634,0.00004582,-0.00001729,-0.0000904
 7,0.00023311,-0.00010417,-0.00031169,-0.00054517,-0.00001567,0.0000008
 3,0.00001266,-0.00005748,0.00004721,-0.00006630,-0.00001147,0.00000421
 ,0.00004494,-0.00156119,0.01075439,-0.01065702,0.00001115,-0.00004554,
 0.00002838,-0.00000452,0.00000752,0.00005077,0.00005584,0.00001320,0.0
 0002670,-0.04486166,0.00005110,0.00118179,0.00096153,0.00055815,-0.001
 21410,-0.00183621,0.00287165,0.00170350,0.00012138,0.00015370,0.001297
 77,-0.00009998,-0.00018790,-0.00090706,0.00001673,-0.00000116,-0.00001
 815,0.00000476,-0.00000434,-0.00000995,0.00001016,0.00000360,0.0000003
 1,0.00000649,-0.00000375,-0.00000311,0.00000032,0.00001009,-0.00000996
 ,-0.00000651,-0.00000261,-0.00000150,-0.00000196,0.00009831,0.00001780
 ,-0.00002288,-0.00000217,0.00001644,0.00001306,0.00012468,-0.00016656,
 0.00000030,-0.00000763,0.00000643,-0.00000023,-0.00000172,-0.00000069,
 0.00000107,0.00000718,-0.00000004,-0.00000141,0.00000038,0.00000150,-0
 .00000875,0.00000367,0.00000210,0.00000412,0.00000416,-0.00000051,-0.0
 0000551,0.00000446,-0.00000638,0.00000197,0.00000268,-0.00000082,-0.00
 000463,0.00000382,-0.00001107,-0.00000348,0.00000175,0.00001564,-0.000
 03037,-0.00003407,-0.00001076,0.00003034,0.00001496,-0.00004601,-0.000
 01668,-0.00001203,-0.00001092,-0.00003985,0.00000674,0.00000602,0.0000
 0173,-0.00000475,0.00000071,0.00021418,-0.00026729,-0.00002074,-0.0001
 1398,0.00003763,-0.00016134,-0.00015827,-0.00005191,0.00056628,0.00033
 378,0.00106694,-0.00061511,0.00009123,0.00018083,-0.00008059,0.0000811
 2,-0.00016650,0.00038466,-0.00070616,0.01177439,-0.00822123,0.00236049
 ,-0.02266428,0.01820327,0.04555607,-0.00015184,-0.00044241,0.00033002,
 -0.00001767,-0.00020557,0.00003436,-0.00037355,0.00082658,-0.00013212,
 0.00018146,0.00015300,-0.00018516,-0.00035085,0.00011368,0.00014286,0.
 00044059,-0.00011511,0.00025540,-0.00001472,-0.00007647,-0.00000960,0.
 00000679,0.00000522,0.00000175,0.00001455,-0.00001527,0.00000376,-0.00
 002656,0.00001188,-0.00000286,-0.00014787,0.00011414,0.00012136,-0.000
 03463,0.00000672,0.00002656,0.00000261,0.00002323,-0.00000437,0.000016
 10,0.00001370,-0.00000112,0.00015076,0.00009193,0.00003057,0.00074650,
 -0.00160527,0.00186571,0.00023998,0.00028885,-0.00048641,-0.00020829,0
 .00005122,-0.00063458,-0.00000551,-0.00000421,0.00001852,-0.00004514,0
 .00004219,-0.00021502,-0.00002382,-0.00000182,0.00003476,-0.00175231,-
 0.01735741,0.01566568,0.00004383,0.00002078,-0.00001139,0.00002833,0.0
 0009046,0.00007193,-0.00002580,-0.00002053,0.00001282,0.00061095,-0.21
 476300,0.13137388,-0.00155802,0.00087747,0.00058879,0.00315938,-0.0036
 8486,-0.00393663,0.00025505,-0.00003106,0.00088061,-0.00010653,0.00003
 200,-0.00062870,0.00000833,-0.00000099,-0.00001597,0.00000419,-0.00000
 478,-0.00001136,0.00000449,-0.00000173,0.00000099,0.00000615,-0.000003
 19,-0.00000366,0.00000042,0.00000666,-0.00000494,-0.00000867,-0.000002
 31,0.00000197,-0.00006113,0.00018673,0.00000219,0.00003934,0.00001649,
 0.00001788,0.00005715,0.00013522,-0.00015706,0.00000989,-0.00000436,0.
 00000415,-0.00000301,-0.00000076,-0.00000119,0.00000355,0.00000737,-0.
 00000169,-0.00000288,0.00000040,0.00000049,-0.00000685,0.00000279,0.00
 000257,0.00000578,0.00000442,-0.00000047,-0.00001514,0.00001292,-0.000
 01094,-0.00002817,0.00000007,-0.00004419,0.00000804,0.00001061,0.00000
 462,-0.00003540,0.00002467,-0.00007266,0.00006313,0.00006572,0.0000359
 2,-0.00013280,-0.00002381,0.00003058,0.00000072,0.00002613,-0.00000432
 ,0.00001736,-0.00001422,0.00001017,0.00000602,0.00001551,-0.00006464,-
 0.00023267,0.00019023,-0.00026627,0.00010323,-0.00001900,-0.00004732,0
 .00070443,0.00041657,-0.00047302,0.00030105,-0.00108199,0.00151120,-0.
 00002230,0.00031484,-0.00015860,0.00000653,0.00028539,-0.00004521,-0.0
 0011561,0.00679012,-0.00592312,0.00156356,-0.00546376,0.00372564,-0.00
 330250,0.23366795,0.00010267,0.00015618,-0.00028750,0.00007824,0.00005
 165,0.00003307,-0.00120093,-0.00002881,-0.00085157,0.00002690,0.000004
 39,0.00000733,0.00010158,-0.00006613,0.00000357,-0.00028908,-0.0000101
 4,-0.00039493,0.00000217,0.00002031,-0.00001998,0.00001101,0.00000056,
 0.00000246,0.00002101,-0.00001965,0.00000258,0.00000071,0.00005070,0.0
 0001155,-0.00044367,-0.00063420,-0.00114414,0.00003010,-0.00000454,0.0
 0000366,0.00001241,-0.00000748,0.00000151,-0.00000898,0.00001364,-0.00
 000018,0.00000587,-0.00012351,-0.00007728,-0.00026727,-0.00049225,0.00
 046910,0.00018030,0.00003046,-0.00059784,0.00004277,-0.00003596,0.0001
 0979,-0.00000212,-0.00000036,-0.00001922,0.00021629,0.00004185,0.00003
 059,-0.00000961,-0.00001203,-0.00000291,-0.00022382,-0.01119538,0.0078
 7233,-0.00007970,0.00004020,0.00001271,-0.00001908,0.00000417,0.000033
 47,0.00000645,0.00001851,-0.00000319,0.00087965,0.13381174,-0.14761455
 ,-0.00039143,-0.00032631,0.00075019,0.00093017,-0.00176735,-0.00055723
 ,-0.00003726,0.00000606,-0.00050224,0.00005821,0.00004786,0.00038168,-
 0.00000500,0.00000438,0.00000272,0.00000057,0.00000186,0.00000766,-0.0
 0000599,-0.00000015,-0.00000131,-0.00000544,0.00000028,0.00000411,0.00
 000270,-0.00000117,0.00000104,0.00001131,0.00000057,-0.00000119,0.0000
 1465,0.00000626,0.00000107,-0.00000181,-0.00001114,-0.00000719,0.00003
 438,0.00000170,0.00009151,-0.00001563,-0.00000412,0.00000023,0.0000023
 7,0.00000054,0.00000348,0.00000044,0.00000035,-0.00000176,0.00000275,-
 0.00000010,0.00000282,0.00000235,-0.00000242,-0.00000266,0.00000059,0.
 00000027,-0.00000170,0.00000853,0.00002074,0.00003258,0.00000554,-0.00
 001419,0.00000152,-0.00000093,-0.00000732,0.00000060,-0.00001025,0.000
 01288,0.00000566,-0.00000058,-0.00000083,0.00000183,-0.00000135,0.0000
 0983,0.00001421,-0.00001096,0.00000726,0.00000661,-0.00000309,-0.00000
 106,-0.00000027,0.00000364,0.00000132,-0.00000510,-0.00021821,-0.00015
 608,0.00002850,-0.00003836,0.00020130,-0.00020860,-0.00010489,0.000193
 17,0.00007736,0.00032051,-0.00046836,0.00080852,-0.00002915,-0.0001111
 6,-0.00015681,0.00037965,-0.00009249,0.00034032,0.00152644,0.02076394,
 -0.01495971,-0.00161097,0.00332286,-0.00438292,0.00001263,-0.14325314,
 0.16064404\\-0.00002607,-0.00002178,0.00001699,0.00002882,-0.00000441,
 -0.00000781,-0.00000261,-0.00000071,-0.00000332,0.00000206,-0.00000686
 ,-0.00000209,-0.00000979,0.00000732,0.00000369,0.00000701,-0.00001119,
 -0.00000466,0.00001611,-0.00000494,-0.00002384,-0.00000227,0.00000479,
 -0.00000165,-0.00000037,0.00000009,-0.00000403,0.00000023,0.00000416,-
 0.00000200,-0.00000287,0.00000817,0.00001056,-0.00000315,0.00001107,0.
 00000017,0.00001691,0.00000376,0.00000058,0.00000271,-0.00000064,0.000
 01566,-0.00000017,0.00000172,-0.00001295,-0.00001658,0.00000362,-0.000
 00700,-0.00001075,-0.00001167,0.00000134,0.00003535,-0.00001487,0.0000
 1516,0.00000192,-0.00000432,-0.00000032,-0.00001447,0.00000797,-0.0000
 0748,-0.00000132,0.00000609,-0.00000396,-0.00000950,0.00000957,-0.0000
 1224,0.00001599,0.00000260,0.00000842,0.00001150,-0.00002003,0.0000017
 7,-0.00000360,-0.00000719,-0.00001034,0.00001218,-0.00000006,0.0000035
 2,-0.00000366,-0.00000084,0.00001268,0.00000543,-0.00000671,0.00002389
 ,-0.00005896,0.00000789,-0.00000643,0.00001930,0.00000336,-0.00000237,
 0.00000254,0.00000365,0.00000190,-0.00000325,-0.00000145,-0.00000843,0
 .00000079,-0.00000856,-0.00000538,0.00000943,-0.00000376,0.00001098,0.
 00003664,-0.00000987,0.00001915,0.00000598,0.00000048,0.00000906,-0.00
 001340,0.00002207,-0.00001112,-0.00000241,0.00000455,0.00000985,-0.000
 01836,-0.00000056,0.00000003,-0.00001798,0.00001257,-0.00001131,0.0000
 0498,-0.00000536,-0.00000458,-0.00001153,0.00001011,0.00000192,-0.0000
 0029,0.00000374,-0.00000076,-0.00000675,-0.00000219,0.00000100,0.00000
 357,0.00000112,-0.00000187,-0.00000183,-0.00000855,-0.00000049,0.00000
 418,0.00000002,0.00000381,0.00000376,0.00000137,0.00000251,0.00000145,
 -0.00000020,-0.00000104,-0.00000189,0.00000313,-0.00000084,-0.00000292
 ,-0.00001328,-0.00001911,-0.00000326,-0.00000518,-0.00000197,-0.000003
 43,-0.00000393,-0.00000674,0.00000215,0.00000105,-0.00000177,0.0000002
 8,0.00001083,0.00000733,0.00000378,0.00000119,-0.00000260,0.00000265,0
 .00000087,-0.00000140,-0.00000939,0.00001557,0.00001268,0.00000416,0.0
 0000450,-0.00000204,-0.00000021,0.00000563,0.00000204,0.00000166,0.000
 00051,-0.00000079,-0.00000417,-0.00000156,-0.00000004,0.00000370,-0.00
 000446,-0.00000191\\\@


 THE ONLY DIFFERENCE BETWEEN ECCENTRICS AND JOGGERS
 IS THAT JOGGERS WEAR SWEATBANDS WHEN THEY RUN IN THE RAIN.
 Job cpu time:       1 days 17 hours 44 minutes 23.6 seconds.
 Elapsed time:       0 days  2 hours  5 minutes 19.7 seconds.
 File lengths (MBytes):  RWF=   4186 Int=      0 D2E=      0 Chk=     41 Scr=      1
 Normal termination of Gaussian 16 at Thu Feb 13 21:44:24 2020.
