 Entering Gaussian System, Link 0=g16
 Initial command:
 /cluster/chemistry/gaussian/g16/l1.exe "/scratch/js1212.771281/scratch/Gau-26011.inp" -scrdir="/scratch/js1212.771281/scratch/"
 Entering Link 1 = /cluster/chemistry/gaussian/g16/l1.exe PID=     26012.
  
 Copyright (c) 1988,1990,1992,1993,1995,1998,2003,2009,2016,
            Gaussian, Inc.  All Rights Reserved.
  
 This is part of the Gaussian(R) 16 program.  It is based on
 the Gaussian(R) 09 system (copyright 2009, Gaussian, Inc.),
 the Gaussian(R) 03 system (copyright 2003, Gaussian, Inc.),
 the Gaussian(R) 98 system (copyright 1998, Gaussian, Inc.),
 the Gaussian(R) 94 system (copyright 1995, Gaussian, Inc.),
 the Gaussian 92(TM) system (copyright 1992, Gaussian, Inc.),
 the Gaussian 90(TM) system (copyright 1990, Gaussian, Inc.),
 the Gaussian 88(TM) system (copyright 1988, Gaussian, Inc.),
 the Gaussian 86(TM) system (copyright 1986, Carnegie Mellon
 University), and the Gaussian 82(TM) system (copyright 1983,
 Carnegie Mellon University). Gaussian is a federally registered
 trademark of Gaussian, Inc.
  
 This software contains proprietary and confidential information,
 including trade secrets, belonging to Gaussian, Inc.
  
 This software is provided under written license and may be
 used, copied, transmitted, or stored only in accord with that
 written license.
  
 The following legend is applicable only to US Government
 contracts under FAR:
  
                    RESTRICTED RIGHTS LEGEND
  
 Use, reproduction and disclosure by the US Government is
 subject to restrictions as set forth in subparagraphs (a)
 and (c) of the Commercial Computer Software - Restricted
 Rights clause in FAR 52.227-19.
  
 Gaussian, Inc.
 340 Quinnipiac St., Bldg. 40, Wallingford CT 06492
  
  
 ---------------------------------------------------------------
 Warning -- This program may not be used in any manner that
 competes with the business of Gaussian, Inc. or will provide
 assistance to any competitor of Gaussian, Inc.  The licensee
 of this program is prohibited from giving any competitor of
 Gaussian, Inc. access to this program.  By using this program,
 the user acknowledges that Gaussian, Inc. is engaged in the
 business of creating and licensing software in the field of
 computational chemistry and represents and warrants to the
 licensee that it is not a competitor of Gaussian, Inc. and that
 it will not use this program in any manner prohibited above.
 ---------------------------------------------------------------
  

 Cite this work as:
 Gaussian 16, Revision A.03,
 M. J. Frisch, G. W. Trucks, H. B. Schlegel, G. E. Scuseria, 
 M. A. Robb, J. R. Cheeseman, G. Scalmani, V. Barone, 
 G. A. Petersson, H. Nakatsuji, X. Li, M. Caricato, A. V. Marenich, 
 J. Bloino, B. G. Janesko, R. Gomperts, B. Mennucci, H. P. Hratchian, 
 J. V. Ortiz, A. F. Izmaylov, J. L. Sonnenberg, D. Williams-Young, 
 F. Ding, F. Lipparini, F. Egidi, J. Goings, B. Peng, A. Petrone, 
 T. Henderson, D. Ranasinghe, V. G. Zakrzewski, J. Gao, N. Rega, 
 G. Zheng, W. Liang, M. Hada, M. Ehara, K. Toyota, R. Fukuda, 
 J. Hasegawa, M. Ishida, T. Nakajima, Y. Honda, O. Kitao, H. Nakai, 
 T. Vreven, K. Throssell, J. A. Montgomery, Jr., J. E. Peralta, 
 F. Ogliaro, M. J. Bearpark, J. J. Heyd, E. N. Brothers, K. N. Kudin, 
 V. N. Staroverov, T. A. Keith, R. Kobayashi, J. Normand, 
 K. Raghavachari, A. P. Rendell, J. C. Burant, S. S. Iyengar, 
 J. Tomasi, M. Cossi, J. M. Millam, M. Klene, C. Adamo, R. Cammi, 
 J. W. Ochterski, R. L. Martin, K. Morokuma, O. Farkas, 
 J. B. Foresman, and D. J. Fox, Gaussian, Inc., Wallingford CT, 2016.
 
 ******************************************
 Gaussian 16:  ES64L-G16RevA.03 25-Dec-2016
                29-Aug-2020 
 ******************************************
 %rwf=/scratch/js1212.771281/3-HCis-D-0-GP-SMD-Guess.rwf
 %nosave
 %nprocshared=20
 Will use up to   20 processors via shared memory.
 %mem=3000MB
 %oldchk=/data/js1212/200828_g16/3-HCis-D-0-GP-NoSMD.chk
 %chk=/scratch/js1212.771281/3-HCis-D-0-GP-SMD-Guess.chk
 Copying data from "/data/js1212/200828_g16/3-HCis-D-0-GP-NoSMD.chk" to current chk file "/scratch/js1212.771281/3-HCis-D-0-GP-SMD-Guess.chk"
 IOpt=  2 FromEx=T IUOpen= 4 IOptOp= 5 NList=   0 IFRang= 0 IUIn= 4 IUOut= 2.
 ----------------------------------------------------------------------
 # genecp pbe1pbe EmpiricalDispersion=GD3BJ scrf=(SMD,solvent=water) ge
 om=allcheck guess=Read
 ----------------------------------------------------------------------
 1/29=7,38=1,172=1/1;
 2/12=2,40=1/2;
 3/5=7,11=2,14=-4,16=1,17=8,25=1,30=1,70=32201,72=1,74=-13,116=-2,124=41/1,2,3;
 4/5=1/1;
 5/5=2,38=6,53=1/2;
 6/7=2,8=2,9=2,10=2,28=1/1;
 99/5=1,9=1/99;
 Structure from the checkpoint file:  "/scratch/js1212.771281/3-HCis-D-0-GP-SMD-Guess.chk"
 -------------------
 Title Card Required
 -------------------
 Charge =  0 Multiplicity = 2
 Redundant internal coordinates found in file.  (old form).
 N,0,-0.6998958364,1.5644445757,-0.1061138388
 C,0,-1.9159571154,2.0573717929,0.1880522068
 C,0,0.2390194965,2.3296952179,-0.6974839796
 C,0,-2.226329357,3.391103219,-0.0435683318
 C,0,-1.2475919915,4.2184218503,-0.5909018467
 C,0,-0.0097304706,3.6825211027,-0.9288469767
 C,0,-2.8639961912,1.0554500624,0.7809691922
 H,0,-3.2199461582,3.7703650669,0.1974516284
 H,0,-1.4580277673,5.2735193547,-0.7743762735
 H,0,0.761617264,4.3005499891,-1.3896520666
 C,0,1.4988695589,1.6410408876,-1.1267471457
 N,0,-2.7032783463,-0.2744853742,0.1631801284
 H,0,-3.9026258073,1.4229292851,0.7089491451
 H,0,-2.6334294497,0.9485638118,1.8536986638
 H,0,1.3106284122,1.2523263661,-2.1416645673
 P,0,1.7939691764,0.0820791572,-0.1356781363
 H,0,2.3516815107,2.334212279,-1.161962348
 Ru,0,-0.3978407495,-0.4569584335,0.1582694623
 C,0,-3.1922390563,-0.2676004436,-1.2364258273
 C,0,2.8608570032,-1.0003012924,-1.27132958
 C,0,-3.3966827444,-1.2813505403,0.9973562487
 C,0,2.7920982199,0.6961351667,1.361744832
 C,0,1.9023457533,-1.6851076087,-2.2502362543
 C,0,3.5309028753,-2.0930309488,-0.4362783258
 C,0,3.9050898529,-0.2073033075,-2.0589234262
 C,0,2.0184085076,1.87208216,1.9694894
 C,0,4.1917468961,1.1859976013,0.9893005891
 C,0,2.9040594972,-0.4102166904,2.4142335222
 C,0,-0.4236999359,-0.5058414437,2.0147016436
 O,0,-0.5136365481,-0.5720747729,3.1745474139
 H,0,-2.6432463728,0.52986907,-1.7580263592
 C,0,-4.6906464143,-0.0901341327,-1.4229757117
 H,0,-2.8359660342,-1.195899154,-1.6981029053
 H,0,-2.9105354678,-1.253024173,1.9839367366
 C,0,-3.313231203,-2.6819627387,0.4283375594
 H,0,-4.4488549577,-0.9690530446,1.1524110214
 O,0,-0.2226221061,-2.513541489,0.0389686894
 H,0,0.0892291076,-2.8654306649,0.8815500223
 O,0,-0.5253059974,-0.4584224572,-1.819979225
 H,0,-2.2621228926,-2.9131661296,0.176755085
 H,0,-3.939963231,-2.8054596858,-0.4675709402
 H,0,-3.6744899697,-3.3967587228,1.183092798
 H,0,-4.9081023083,-0.0682878969,-2.5013122972
 H,0,-5.0716716765,0.8526005795,-0.9996457671
 H,0,-5.2721010067,-0.9172260099,-0.9895109797
 H,0,2.4957350085,-2.3496663917,-2.9016761479
 H,0,1.3694859576,-0.9638343787,-2.8867328769
 H,0,1.1447148283,-2.2735206346,-1.7085007852
 H,0,3.9886493537,-2.8255214835,-1.1212952632
 H,0,2.7899696457,-2.6305647607,0.1742497865
 H,0,4.3295956297,-1.7095501178,0.2144951857
 H,0,4.4472382468,-0.906054818,-2.7179241275
 H,0,4.6494480846,0.2918257347,-1.4256637201
 H,0,3.4399596191,0.5474525623,-2.7102551982
 H,0,4.8484905424,0.3674231975,0.6658604121
 H,0,4.6557457203,1.6467213871,1.877499526
 H,0,4.1738668973,1.9502730259,0.1974935446
 H,0,3.4877103031,-1.2687332178,2.0610676985
 H,0,1.920530159,-0.7731796712,2.734958509
 H,0,3.4139973274,-0.0032795689,3.3035148058
 H,0,2.5142289316,2.1746266114,2.9063823431
 H,0,0.9799110177,1.6064712789,2.2086470942
 H,0,2.0076367583,2.749649804,1.3060863353
 Recover connectivity data from disk.
                           ----------------------------
                           !    Current Parameters    !
                           ! (Angstroms and Degrees)  !
 --------------------------                            --------------------------
 ! Name  Definition              Value                                          !
 --------------------------------------------------------------------------------
 ! R1    R(1,2)                  1.3447                                         !
 ! R2    R(1,3)                  1.3479                                         !
 ! R3    R(1,18)                 2.0609                                         !
 ! R4    R(2,4)                  1.3888                                         !
 ! R5    R(2,7)                  1.5014                                         !
 ! R6    R(3,6)                  1.3948                                         !
 ! R7    R(3,11)                 1.4986                                         !
 ! R8    R(4,5)                  1.3935                                         !
 ! R9    R(4,8)                  1.0905                                         !
 ! R10   R(5,6)                  1.3906                                         !
 ! R11   R(5,9)                  1.0914                                         !
 ! R12   R(6,10)                 1.0905                                         !
 ! R13   R(7,12)                 1.4752                                         !
 ! R14   R(7,13)                 1.1041                                         !
 ! R15   R(7,14)                 1.1024                                         !
 ! R16   R(11,15)                1.103                                          !
 ! R17   R(11,16)                1.8707                                         !
 ! R18   R(11,17)                1.0996                                         !
 ! R19   R(12,19)                1.4826                                         !
 ! R20   R(12,21)                1.48                                           !
 ! R21   R(16,18)                2.2762                                         !
 ! R22   R(16,20)                1.8972                                         !
 ! R23   R(16,22)                1.9015                                         !
 ! R24   R(18,29)                1.8573                                         !
 ! R25   R(18,37)                2.0675                                         !
 ! R26   R(18,39)                1.9824                                         !
 ! R27   R(19,31)                1.0997                                         !
 ! R28   R(19,32)                1.5204                                         !
 ! R29   R(19,33)                1.0963                                         !
 ! R30   R(20,23)                1.5317                                         !
 ! R31   R(20,24)                1.5298                                         !
 ! R32   R(20,25)                1.5296                                         !
 ! R33   R(21,34)                1.1002                                         !
 ! R34   R(21,35)                1.5141                                         !
 ! R35   R(21,36)                1.1084                                         !
 ! R36   R(22,26)                1.5332                                         !
 ! R37   R(22,27)                1.529                                          !
 ! R38   R(22,28)                1.5311                                         !
 ! R39   R(23,46)                1.1037                                         !
 ! R40   R(23,47)                1.0997                                         !
 ! R41   R(23,48)                1.1017                                         !
 ! R42   R(24,49)                1.1024                                         !
 ! R43   R(24,50)                1.1003                                         !
 ! R44   R(24,51)                1.0993                                         !
 ! R45   R(25,52)                1.1029                                         !
 ! R46   R(25,53)                1.0974                                         !
 ! R47   R(25,54)                1.1001                                         !
 ! R48   R(26,61)                1.1023                                         !
 ! R49   R(26,62)                1.0983                                         !
 ! R50   R(26,63)                1.1002                                         !
 ! R51   R(27,55)                1.0982                                         !
 ! R52   R(27,56)                1.1029                                         !
 ! R53   R(27,57)                1.1006                                         !
 ! R54   R(28,58)                1.0966                                         !
 ! R55   R(28,59)                1.0963                                         !
 ! R56   R(28,60)                1.1029                                         !
 ! R57   R(29,30)                1.1652                                         !
 ! R58   R(32,43)                1.1003                                         !
 ! R59   R(32,44)                1.1014                                         !
 ! R60   R(32,45)                1.1                                            !
 ! R61   R(35,40)                1.1052                                         !
 ! R62   R(35,41)                1.1003                                         !
 ! R63   R(35,42)                1.1005                                         !
 ! R64   R(37,38)                0.9649                                         !
 ! A1    A(2,1,3)              121.1835                                         !
 ! A2    A(2,1,18)             117.6467                                         !
 ! A3    A(3,1,18)             120.7333                                         !
 ! A4    A(1,2,4)              121.1736                                         !
 ! A5    A(1,2,7)              114.3803                                         !
 ! A6    A(4,2,7)              124.4444                                         !
 ! A7    A(1,3,6)              119.9458                                         !
 ! A8    A(1,3,11)             116.7681                                         !
 ! A9    A(6,3,11)             123.2378                                         !
 ! A10   A(2,4,5)              118.5991                                         !
 ! A11   A(2,4,8)              120.0499                                         !
 ! A12   A(5,4,8)              121.3504                                         !
 ! A13   A(4,5,6)              119.4633                                         !
 ! A14   A(4,5,9)              120.3006                                         !
 ! A15   A(6,5,9)              120.2213                                         !
 ! A16   A(3,6,5)              119.4864                                         !
 ! A17   A(3,6,10)             119.5776                                         !
 ! A18   A(5,6,10)             120.9252                                         !
 ! A19   A(2,7,12)             111.5578                                         !
 ! A20   A(2,7,13)             110.2513                                         !
 ! A21   A(2,7,14)             108.4764                                         !
 ! A22   A(12,7,13)            112.0388                                         !
 ! A23   A(12,7,14)            107.2961                                         !
 ! A24   A(13,7,14)            107.0073                                         !
 ! A25   A(3,11,15)            106.3824                                         !
 ! A26   A(3,11,16)            111.3347                                         !
 ! A27   A(3,11,17)            111.8094                                         !
 ! A28   A(15,11,16)           102.7506                                         !
 ! A29   A(15,11,17)           108.9696                                         !
 ! A30   A(16,11,17)           114.8326                                         !
 ! A31   A(7,12,19)            110.8075                                         !
 ! A32   A(7,12,21)            109.0405                                         !
 ! A33   A(19,12,21)           112.3787                                         !
 ! A34   A(11,16,18)            96.5382                                         !
 ! A35   A(11,16,20)           104.301                                          !
 ! A36   A(11,16,22)           103.3494                                         !
 ! A37   A(18,16,20)           118.9267                                         !
 ! A38   A(18,16,22)           118.7014                                         !
 ! A39   A(20,16,22)           111.1272                                         !
 ! A40   A(1,18,16)             83.8164                                         !
 ! A41   A(1,18,29)             98.7432                                         !
 ! A42   A(1,18,39)             82.1418                                         !
 ! A43   A(16,18,29)            98.553                                          !
 ! A44   A(16,18,37)            98.4246                                         !
 ! A45   A(16,18,39)            86.1708                                         !
 ! A46   A(29,18,37)            91.8726                                         !
 ! A47   A(37,18,39)            86.9694                                         !
 ! A48   A(12,19,31)           106.6474                                         !
 ! A49   A(12,19,32)           116.1943                                         !
 ! A50   A(12,19,33)           106.6456                                         !
 ! A51   A(31,19,32)           110.4356                                         !
 ! A52   A(31,19,33)           104.5995                                         !
 ! A53   A(32,19,33)           111.559                                          !
 ! A54   A(16,20,23)           106.6023                                         !
 ! A55   A(16,20,24)           109.0909                                         !
 ! A56   A(16,20,25)           113.3502                                         !
 ! A57   A(23,20,24)           107.6739                                         !
 ! A58   A(23,20,25)           109.2653                                         !
 ! A59   A(24,20,25)           110.6324                                         !
 ! A60   A(12,21,34)           106.3126                                         !
 ! A61   A(12,21,35)           113.059                                          !
 ! A62   A(12,21,36)           109.3841                                         !
 ! A63   A(34,21,35)           109.6614                                         !
 ! A64   A(34,21,36)           106.663                                          !
 ! A65   A(35,21,36)           111.4396                                         !
 ! A66   A(16,22,26)           107.1547                                         !
 ! A67   A(16,22,27)           113.0893                                         !
 ! A68   A(16,22,28)           110.2655                                         !
 ! A69   A(26,22,27)           108.2259                                         !
 ! A70   A(26,22,28)           108.5799                                         !
 ! A71   A(27,22,28)           109.3912                                         !
 ! A72   A(20,23,46)           108.0585                                         !
 ! A73   A(20,23,47)           112.3279                                         !
 ! A74   A(20,23,48)           110.7866                                         !
 ! A75   A(46,23,47)           108.2895                                         !
 ! A76   A(46,23,48)           109.7783                                         !
 ! A77   A(47,23,48)           107.5596                                         !
 ! A78   A(20,24,49)           108.4989                                         !
 ! A79   A(20,24,50)           110.9094                                         !
 ! A80   A(20,24,51)           113.0905                                         !
 ! A81   A(49,24,50)           107.445                                          !
 ! A82   A(49,24,51)           107.3347                                         !
 ! A83   A(50,24,51)           109.3409                                         !
 ! A84   A(20,25,52)           108.3479                                         !
 ! A85   A(20,25,53)           113.6878                                         !
 ! A86   A(20,25,54)           111.8332                                         !
 ! A87   A(52,25,53)           107.4296                                         !
 ! A88   A(52,25,54)           106.7819                                         !
 ! A89   A(53,25,54)           108.4453                                         !
 ! A90   A(22,26,61)           108.6885                                         !
 ! A91   A(22,26,62)           112.2082                                         !
 ! A92   A(22,26,63)           112.1922                                         !
 ! A93   A(61,26,62)           107.8549                                         !
 ! A94   A(61,26,63)           107.3365                                         !
 ! A95   A(62,26,63)           108.3585                                         !
 ! A96   A(22,27,55)           112.3574                                         !
 ! A97   A(22,27,56)           108.8314                                         !
 ! A98   A(22,27,57)           112.5104                                         !
 ! A99   A(55,27,56)           107.2754                                         !
 ! A100  A(55,27,57)           108.3868                                         !
 ! A101  A(56,27,57)           107.2243                                         !
 ! A102  A(22,28,58)           112.5356                                         !
 ! A103  A(22,28,59)           112.0072                                         !
 ! A104  A(22,28,60)           108.7507                                         !
 ! A105  A(58,28,59)           108.2107                                         !
 ! A106  A(58,28,60)           107.6054                                         !
 ! A107  A(59,28,60)           107.5209                                         !
 ! A108  A(19,32,43)           108.5033                                         !
 ! A109  A(19,32,44)           113.1843                                         !
 ! A110  A(19,32,45)           112.6333                                         !
 ! A111  A(43,32,44)           106.9372                                         !
 ! A112  A(43,32,45)           107.2569                                         !
 ! A113  A(44,32,45)           108.0137                                         !
 ! A114  A(21,35,40)           109.3581                                         !
 ! A115  A(21,35,41)           112.2366                                         !
 ! A116  A(21,35,42)           108.9657                                         !
 ! A117  A(40,35,41)           109.4433                                         !
 ! A118  A(40,35,42)           109.4163                                         !
 ! A119  A(41,35,42)           107.3701                                         !
 ! A120  A(18,37,38)           109.863                                          !
 ! A121  L(1,18,37,16,-1)      182.2411                                         !
 ! A122  L(29,18,39,1,-1)      180.885                                          !
 ! A123  L(18,29,30,7,-1)      177.8031                                         !
 ! A124  L(1,18,37,16,-2)      191.1425                                         !
 ! A125  L(29,18,39,1,-2)      184.7109                                         !
 ! A126  L(18,29,30,7,-2)      176.3501                                         !
 ! D1    D(3,1,2,4)             -3.3503                                         !
 ! D2    D(3,1,2,7)            177.0972                                         !
 ! D3    D(18,1,2,4)          -175.8213                                         !
 ! D4    D(18,1,2,7)             4.6262                                         !
 ! D5    D(2,1,3,6)              4.5395                                         !
 ! D6    D(2,1,3,11)          -173.0149                                         !
 ! D7    D(18,1,3,6)           176.779                                          !
 ! D8    D(18,1,3,11)           -0.7754                                         !
 ! D9    D(2,1,18,16)         -168.2494                                         !
 ! D10   D(2,1,18,29)          -70.5087                                         !
 ! D11   D(2,1,18,39)          104.7804                                         !
 ! D12   D(3,1,18,16)           19.244                                          !
 ! D13   D(3,1,18,29)          116.9847                                         !
 ! D14   D(3,1,18,39)          -67.7262                                         !
 ! D15   D(2,1,37,38)          -92.6083                                         !
 ! D16   D(3,1,37,38)          101.0979                                         !
 ! D17   D(1,2,4,5)             -0.0094                                         !
 ! D18   D(1,2,4,8)            179.7041                                         !
 ! D19   D(7,2,4,5)            179.4964                                         !
 ! D20   D(7,2,4,8)             -0.7901                                         !
 ! D21   D(1,2,7,12)           -37.4762                                         !
 ! D22   D(1,2,7,13)          -162.6321                                         !
 ! D23   D(1,2,7,14)            80.4967                                         !
 ! D24   D(4,2,7,12)           142.988                                          !
 ! D25   D(4,2,7,13)            17.8322                                         !
 ! D26   D(4,2,7,14)           -99.0391                                         !
 ! D27   D(1,3,6,5)             -2.3925                                         !
 ! D28   D(1,3,6,10)           178.7885                                         !
 ! D29   D(11,3,6,5)           174.9968                                         !
 ! D30   D(11,3,6,10)           -3.8222                                         !
 ! D31   D(1,3,11,15)           87.1702                                         !
 ! D32   D(1,3,11,16)          -24.0405                                         !
 ! D33   D(1,3,11,17)         -153.9756                                         !
 ! D34   D(6,3,11,15)          -90.2962                                         !
 ! D35   D(6,3,11,16)          158.4931                                         !
 ! D36   D(6,3,11,17)           28.558                                          !
 ! D37   D(2,4,5,6)              2.0617                                         !
 ! D38   D(2,4,5,9)           -179.3374                                         !
 ! D39   D(8,4,5,6)           -177.6479                                         !
 ! D40   D(8,4,5,9)              0.953                                          !
 ! D41   D(4,5,6,3)             -0.8864                                         !
 ! D42   D(4,5,6,10)           177.9163                                         !
 ! D43   D(9,5,6,3)           -179.4884                                         !
 ! D44   D(9,5,6,10)            -0.6857                                         !
 ! D45   D(2,7,12,19)          -69.9414                                         !
 ! D46   D(2,7,12,21)          165.8634                                         !
 ! D47   D(13,7,12,19)          54.2142                                         !
 ! D48   D(13,7,12,21)         -69.981                                          !
 ! D49   D(14,7,12,19)         171.379                                          !
 ! D50   D(14,7,12,21)          47.1838                                         !
 ! D51   D(3,11,16,18)          32.6561                                         !
 ! D52   D(3,11,16,20)         154.7727                                         !
 ! D53   D(3,11,16,22)         -88.9455                                         !
 ! D54   D(15,11,16,18)        -80.8494                                         !
 ! D55   D(15,11,16,20)         41.2671                                         !
 ! D56   D(15,11,16,22)        157.549                                          !
 ! D57   D(17,11,16,18)        160.9892                                         !
 ! D58   D(17,11,16,20)        -76.8943                                         !
 ! D59   D(17,11,16,22)         39.3876                                         !
 ! D60   D(7,12,19,31)          55.8703                                         !
 ! D61   D(7,12,19,32)         -67.7189                                         !
 ! D62   D(7,12,19,33)         167.216                                          !
 ! D63   D(21,12,19,31)        178.1388                                         !
 ! D64   D(21,12,19,32)         54.5496                                         !
 ! D65   D(21,12,19,33)        -70.5154                                         !
 ! D66   D(7,12,21,34)         -60.8269                                         !
 ! D67   D(7,12,21,35)         178.802                                          !
 ! D68   D(7,12,21,36)          53.9884                                         !
 ! D69   D(19,12,21,34)        175.9094                                         !
 ! D70   D(19,12,21,35)         55.5383                                         !
 ! D71   D(19,12,21,36)        -69.2753                                         !
 ! D72   D(11,16,18,1)         -24.8592                                         !
 ! D73   D(11,16,18,29)       -122.8099                                         !
 ! D74   D(11,16,18,37)        143.9983                                         !
 ! D75   D(11,16,18,39)         57.6378                                         !
 ! D76   D(20,16,18,1)        -135.1885                                         !
 ! D77   D(20,16,18,29)        126.8609                                         !
 ! D78   D(20,16,18,37)         33.6691                                         !
 ! D79   D(20,16,18,39)        -52.6914                                         !
 ! D80   D(22,16,18,1)          84.2703                                         !
 ! D81   D(22,16,18,29)        -13.6803                                         !
 ! D82   D(22,16,18,37)       -106.8721                                         !
 ! D83   D(22,16,18,39)        166.7674                                         !
 ! D84   D(11,16,20,23)        -81.6224                                         !
 ! D85   D(11,16,20,24)        162.3734                                         !
 ! D86   D(11,16,20,25)         38.6244                                         !
 ! D87   D(18,16,20,23)         24.3476                                         !
 ! D88   D(18,16,20,24)        -91.6566                                         !
 ! D89   D(18,16,20,25)        144.5944                                         !
 ! D90   D(22,16,20,23)        167.6488                                         !
 ! D91   D(22,16,20,24)         51.6446                                         !
 ! D92   D(22,16,20,25)        -72.1045                                         !
 ! D93   D(11,16,22,26)         51.6487                                         !
 ! D94   D(11,16,22,27)        -67.5229                                         !
 ! D95   D(11,16,22,28)        169.6468                                         !
 ! D96   D(18,16,22,26)        -53.62                                           !
 ! D97   D(18,16,22,27)       -172.7916                                         !
 ! D98   D(18,16,22,28)         64.378                                          !
 ! D99   D(20,16,22,26)        162.9866                                         !
 ! D100  D(20,16,22,27)         43.815                                          !
 ! D101  D(20,16,22,28)        -79.0154                                         !
 ! D102  D(16,18,37,38)         79.9809                                         !
 ! D103  D(29,18,37,38)        -18.9515                                         !
 ! D104  D(39,18,37,38)        165.654                                          !
 ! D105  D(12,19,32,43)        178.0302                                         !
 ! D106  D(12,19,32,44)         59.5068                                         !
 ! D107  D(12,19,32,45)        -63.3847                                         !
 ! D108  D(31,19,32,43)         56.4286                                         !
 ! D109  D(31,19,32,44)        -62.0948                                         !
 ! D110  D(31,19,32,45)        175.0137                                         !
 ! D111  D(33,19,32,43)        -59.4483                                         !
 ! D112  D(33,19,32,44)       -177.9718                                         !
 ! D113  D(33,19,32,45)         59.1368                                         !
 ! D114  D(16,20,23,46)       -178.0702                                         !
 ! D115  D(16,20,23,47)         62.5407                                         !
 ! D116  D(16,20,23,48)        -57.7747                                         !
 ! D117  D(24,20,23,46)        -61.1206                                         !
 ! D118  D(24,20,23,47)        179.4903                                         !
 ! D119  D(24,20,23,48)         59.1749                                         !
 ! D120  D(25,20,23,46)         59.087                                          !
 ! D121  D(25,20,23,47)        -60.3022                                         !
 ! D122  D(25,20,23,48)        179.3825                                         !
 ! D123  D(16,20,24,49)        169.3489                                         !
 ! D124  D(16,20,24,50)         51.5588                                         !
 ! D125  D(16,20,24,51)        -71.6915                                         !
 ! D126  D(23,20,24,49)         54.0326                                         !
 ! D127  D(23,20,24,50)        -63.7575                                         !
 ! D128  D(23,20,24,51)        172.9922                                         !
 ! D129  D(25,20,24,49)        -65.3076                                         !
 ! D130  D(25,20,24,50)        176.9023                                         !
 ! D131  D(25,20,24,51)         53.652                                          !
 ! D132  D(16,20,25,52)       -177.73                                           !
 ! D133  D(16,20,25,53)         62.9223                                         !
 ! D134  D(16,20,25,54)        -60.306                                          !
 ! D135  D(23,20,25,52)        -59.0077                                         !
 ! D136  D(23,20,25,53)       -178.3554                                         !
 ! D137  D(23,20,25,54)         58.4163                                         !
 ! D138  D(24,20,25,52)         59.3679                                         !
 ! D139  D(24,20,25,53)        -59.9798                                         !
 ! D140  D(24,20,25,54)        176.7919                                         !
 ! D141  D(12,21,35,40)         49.7079                                         !
 ! D142  D(12,21,35,41)        -71.9472                                         !
 ! D143  D(12,21,35,42)        169.2665                                         !
 ! D144  D(34,21,35,40)        -68.7337                                         !
 ! D145  D(34,21,35,41)        169.6111                                         !
 ! D146  D(34,21,35,42)         50.8248                                         !
 ! D147  D(36,21,35,40)        173.3981                                         !
 ! D148  D(36,21,35,41)         51.743                                          !
 ! D149  D(36,21,35,42)        -67.0433                                         !
 ! D150  D(16,22,26,61)        173.6308                                         !
 ! D151  D(16,22,26,62)         54.4408                                         !
 ! D152  D(16,22,26,63)        -67.8325                                         !
 ! D153  D(27,22,26,61)        -64.1103                                         !
 ! D154  D(27,22,26,62)        176.6998                                         !
 ! D155  D(27,22,26,63)         54.4264                                         !
 ! D156  D(28,22,26,61)         54.54                                           !
 ! D157  D(28,22,26,62)        -64.6499                                         !
 ! D158  D(28,22,26,63)        173.0767                                         !
 ! D159  D(16,22,27,55)        -68.7814                                         !
 ! D160  D(16,22,27,56)        172.5637                                         !
 ! D161  D(16,22,27,57)         53.8784                                         !
 ! D162  D(26,22,27,55)        172.6669                                         !
 ! D163  D(26,22,27,56)         54.012                                          !
 ! D164  D(26,22,27,57)        -64.6733                                         !
 ! D165  D(28,22,27,55)         54.533                                          !
 ! D166  D(28,22,27,56)        -64.1218                                         !
 ! D167  D(28,22,27,57)        177.1929                                         !
 ! D168  D(16,22,28,58)         65.4635                                         !
 ! D169  D(16,22,28,59)        -56.721                                          !
 ! D170  D(16,22,28,60)       -175.4141                                         !
 ! D171  D(26,22,28,58)       -177.4189                                         !
 ! D172  D(26,22,28,59)         60.3966                                         !
 ! D173  D(26,22,28,60)        -58.2964                                         !
 ! D174  D(27,22,28,58)        -59.5064                                         !
 ! D175  D(27,22,28,59)        178.3091                                         !
 ! D176  D(27,22,28,60)         59.6161                                         !
 --------------------------------------------------------------------------------
 Stoichiometry    C20H36N2O3PRu(2)
 Framework group  C1[X(C20H36N2O3PRu)]
 Deg. of freedom   183
 Full point group                 C1      NOp   1
 Largest Abelian subgroup         C1      NOp   1
 Largest concise Abelian subgroup C1      NOp   1
                         Standard orientation:                         
 ---------------------------------------------------------------------
 Center     Atomic      Atomic             Coordinates (Angstroms)
 Number     Number       Type             X           Y           Z
 ---------------------------------------------------------------------
      1          7           0       -0.740744    1.421385   -0.097334
      2          6           0       -1.962889    1.883742    0.220318
      3          6           0        0.176224    2.217374   -0.682536
      4          6           0       -2.302035    3.215577    0.020287
      5          6           0       -1.345983    4.073481   -0.520011
      6          6           0       -0.101689    3.569518   -0.882573
      7          6           0       -2.884302    0.850966    0.802167
      8          1           0       -3.300153    3.569857    0.280000
      9          1           0       -1.579193    5.127783   -0.678875
     10          1           0        0.652118    4.212281   -1.338543
     11          6           0        1.444481    1.563067   -1.139854
     12          7           0       -2.704391   -0.462303    0.154727
     13          1           0       -3.930707    1.199114    0.749166
     14          1           0       -2.639637    0.726296    1.869842
     15          1           0        1.252535    1.191978   -2.160658
     16         15           0        1.781325   -0.010082   -0.185180
     17          1           0        2.283035    2.273669   -1.169649
     18         44           0       -0.396009   -0.598686    0.121018
     19          6           0       -3.209089   -0.435906   -1.239049
     20          6           0        2.856482   -1.047030   -1.354914
     21          6           0       -3.368426   -1.499991    0.974907
     22          6           0        2.783938    0.592299    1.313989
     23          6           0        1.900696   -1.730179   -2.337636
     24          6           0        3.557246   -2.143413   -0.550425
     25          6           0        3.875988   -0.217106   -2.136839
     26          6           0        1.994130    1.739647    1.954768
     27          6           0        4.169400    1.117614    0.936849
     28          6           0        2.929472   -0.533359    2.341605
     29          6           0       -0.400040   -0.686863    1.976174
     30          8           0       -0.475617   -0.779101    3.135268
     31          1           0       -2.681794    0.383065   -1.749602
     32          6           0       -4.712700   -0.284454   -1.405585
     33          1           0       -2.839824   -1.347074   -1.724055
     34          1           0       -2.871876   -1.482615    1.956548
     35          6           0       -3.263823   -2.886465    0.375567
     36          1           0       -4.424733   -1.212017    1.147899
     37          8           0       -0.181698   -2.648429   -0.043577
     38          1           0        0.146467   -3.011572    0.787961
     39          8           0       -0.545642   -0.561342   -1.855326
     40          1           0       -2.211261   -3.091382    0.107799
     41          1           0       -3.898030   -3.003667   -0.515915
     42          1           0       -3.602439   -3.623932    1.118924
     43          1           0       -4.942647   -0.244410   -2.480804
     44          1           0       -5.107426    0.641452   -0.958342
     45          1           0       -5.272856   -1.131840   -0.983418
     46          1           0        2.499693   -2.369029   -3.009348
     47          1           0        1.346624   -1.006515   -2.952955
     48          1           0        1.160928   -2.344757   -1.800281
     49          1           0        4.021595   -2.852166   -1.255672
     50          1           0        2.833944   -2.708238    0.056596
     51          1           0        4.355499   -1.757788    0.099621
     52          1           0        4.424346   -0.890997   -2.816277
     53          1           0        4.617447    0.283403   -1.501271
     54          1           0        3.388804    0.541685   -2.767015
     55          1           0        4.838452    0.319219    0.589107
     56          1           0        4.634192    1.568823    1.829507
     57          1           0        4.127585    1.897764    0.161599
     58          1           0        3.525902   -1.372514    1.964093
     59          1           0        1.956943   -0.922460    2.665217
     60          1           0        3.441262   -0.135023    3.233712
     61          1           0        2.494396    2.032358    2.892421
     62          1           0        0.963815    1.448467    2.199486
     63          1           0        1.958634    2.630499    1.310201
 ---------------------------------------------------------------------
 Rotational constants (GHZ):           0.2474712           0.1559111           0.1345145
 General basis read from cards:  (5D, 7F)
 ======================================================================================================
                                       Pseudopotential Parameters
 ======================================================================================================
  Center     Atomic      Valence      Angular      Power
  Number     Number     Electrons     Momentum     of R      Exponent        Coefficient   SO-Coeffient
 ======================================================================================================
    1          7
                                   No pseudopotential on this center.
    2          6
                                   No pseudopotential on this center.
    3          6
                                   No pseudopotential on this center.
    4          6
                                   No pseudopotential on this center.
    5          6
                                   No pseudopotential on this center.
    6          6
                                   No pseudopotential on this center.
    7          6
                                   No pseudopotential on this center.
    8          1
                                   No pseudopotential on this center.
    9          1
                                   No pseudopotential on this center.
   10          1
                                   No pseudopotential on this center.
   11          6
                                   No pseudopotential on this center.
   12          7
                                   No pseudopotential on this center.
   13          1
                                   No pseudopotential on this center.
   14          1
                                   No pseudopotential on this center.
   15          1
                                   No pseudopotential on this center.
   16         15
                                   No pseudopotential on this center.
   17          1
                                   No pseudopotential on this center.
   18         44           16
                                      G and up 
                                                     2        1.0000000        0.00000000    0.00000000
                                      S - G
                                                     2       11.1052690      209.82297100    0.00000000
                                                     2        5.4147450       30.65472600    0.00000000
                                      P - G
                                                     2        9.7712710      146.33618200    0.00000000
                                                     2        5.0739910       24.12787700    0.00000000
                                      D - G
                                                     2        7.6714230       67.51589700    0.00000000
                                                     2        4.1365650        9.87010400    0.00000000
                                      F - G
                                                     2       11.3600000      -28.34061600    0.00000000
                                                     2        5.6800000       -4.94462900    0.00000000
   19          6
                                   No pseudopotential on this center.
   20          6
                                   No pseudopotential on this center.
   21          6
                                   No pseudopotential on this center.
   22          6
                                   No pseudopotential on this center.
   23          6
                                   No pseudopotential on this center.
   24          6
                                   No pseudopotential on this center.
   25          6
                                   No pseudopotential on this center.
   26          6
                                   No pseudopotential on this center.
   27          6
                                   No pseudopotential on this center.
   28          6
                                   No pseudopotential on this center.
   29          6
                                   No pseudopotential on this center.
   30          8
                                   No pseudopotential on this center.
   31          1
                                   No pseudopotential on this center.
   32          6
                                   No pseudopotential on this center.
   33          1
                                   No pseudopotential on this center.
   34          1
                                   No pseudopotential on this center.
   35          6
                                   No pseudopotential on this center.
   36          1
                                   No pseudopotential on this center.
   37          8
                                   No pseudopotential on this center.
   38          1
                                   No pseudopotential on this center.
   39          8
                                   No pseudopotential on this center.
   40          1
                                   No pseudopotential on this center.
   41          1
                                   No pseudopotential on this center.
   42          1
                                   No pseudopotential on this center.
   43          1
                                   No pseudopotential on this center.
   44          1
                                   No pseudopotential on this center.
   45          1
                                   No pseudopotential on this center.
   46          1
                                   No pseudopotential on this center.
   47          1
                                   No pseudopotential on this center.
   48          1
                                   No pseudopotential on this center.
   49          1
                                   No pseudopotential on this center.
   50          1
                                   No pseudopotential on this center.
   51          1
                                   No pseudopotential on this center.
   52          1
                                   No pseudopotential on this center.
   53          1
                                   No pseudopotential on this center.
   54          1
                                   No pseudopotential on this center.
   55          1
                                   No pseudopotential on this center.
   56          1
                                   No pseudopotential on this center.
   57          1
                                   No pseudopotential on this center.
   58          1
                                   No pseudopotential on this center.
   59          1
                                   No pseudopotential on this center.
   60          1
                                   No pseudopotential on this center.
   61          1
                                   No pseudopotential on this center.
   62          1
                                   No pseudopotential on this center.
   63          1
                                   No pseudopotential on this center.
 ======================================================================================================
 There are  1493 symmetry adapted cartesian basis functions of A   symmetry.
 There are  1324 symmetry adapted basis functions of A   symmetry.
  1324 basis functions,  2072 primitive gaussians,  1493 cartesian basis functions
   113 alpha electrons      112 beta electrons
       nuclear repulsion energy      3470.8141311285 Hartrees.
 NAtoms=   63 NActive=   63 NUniq=   63 SFac= 1.00D+00 NAtFMM=   60 NAOKFM=T Big=T
 Integral buffers will be    131072 words long.
 Raffenetti 2 integral format.
 Two-electron integral symmetry is turned on.
 Nuclear repulsion after empirical dispersion term =     3470.7186087232 Hartrees.
 ------------------------------------------------------------------------------
 Polarizable Continuum Model (PCM)
 =================================
 Model                : PCM.
 Atomic radii         : SMD-Coulomb.
 Polarization charges : Total charges.
 Charge compensation  : None.
 Solution method      : On-the-fly selection.
 Cavity type          : VdW (van der Waals Surface) (Alpha=1.000).
 Cavity algorithm     : GePol (No added spheres)
                        Default sphere list used, NSphG=   63.
                        Lebedev-Laikov grids with approx.  5.0 points / Ang**2.
                        Smoothing algorithm: York/Karplus (Gamma=1.0000).
                        Polarization charges: spherical gaussians, with
                                              point-specific exponents (IZeta= 3).
                        Self-potential: point-specific (ISelfS= 7).
                        Self-field    : sphere-specific E.n sum rule (ISelfD= 2).
 Solvent              : Water, Eps=  78.355300 Eps(inf)=   1.777849
 ------------------------------------------------------------------------------
 ------------------------------------------------------------------------------
 Atomic radii for non-electrostatic terms: SMD-CDS.
 ------------------------------------------------------------------------------
 Nuclear repulsion after PCM non-electrostatic terms =     3470.7354784082 Hartrees.
 One-electron integrals computed using PRISM.
   1 Symmetry operations used in ECPInt.
 ECPInt:  NShTT=  121278 NPrTT=  436029 LenC2=  104360 LenP2D=  244617.
 LDataN:  DoStor=T MaxTD1= 7 Len=  274
 Number of processors reduced to  11 by ecpmxn.
 NBasis=  1324 RedAO= T EigKep=  3.90D-05  NBF=  1324
 NBsUse=  1324 1.00D-06 EigRej= -1.00D+00 NBFU=  1324
 Defaulting to unpruned grid for atomic number  44.
 Initial guess from the checkpoint file:  "/scratch/js1212.771281/3-HCis-D-0-GP-SMD-Guess.chk"
 B after Tr=    -0.000000   -0.000000    0.000000
         Rot=    1.000000    0.000000    0.000000    0.000000 Ang=   0.00 deg.
 Initial guess <Sx>= 0.0000 <Sy>= 0.0000 <Sz>= 0.5000 <S**2>= 0.7579 S= 0.5039
 Requested convergence on RMS density matrix=1.00D-08 within 128 cycles.
 Requested convergence on MAX density matrix=1.00D-06.
 Requested convergence on             energy=1.00D-06.
 No special actions if energy rises.
 Defaulting to unpruned grid for atomic number  44.
 Defaulting to unpruned grid for atomic number  44.
 Defaulting to unpruned grid for atomic number  44.
 Defaulting to unpruned grid for atomic number  44.
 Defaulting to unpruned grid for atomic number  44.
 Defaulting to unpruned grid for atomic number  44.
 Defaulting to unpruned grid for atomic number  44.
 Defaulting to unpruned grid for atomic number  44.
 Defaulting to unpruned grid for atomic number  44.
 Defaulting to unpruned grid for atomic number  44.
 Defaulting to unpruned grid for atomic number  44.
 Defaulting to unpruned grid for atomic number  44.
 Defaulting to unpruned grid for atomic number  44.
 Defaulting to unpruned grid for atomic number  44.
 Defaulting to unpruned grid for atomic number  44.
 Defaulting to unpruned grid for atomic number  44.
 Defaulting to unpruned grid for atomic number  44.
 Defaulting to unpruned grid for atomic number  44.
 Defaulting to unpruned grid for atomic number  44.
 Defaulting to unpruned grid for atomic number  44.
 Inv3:  Mode=1 IEnd=    45139923.
 Iteration    1 A*A^-1 deviation from unit magnitude is 6.33D-15 for   3855.
 Iteration    1 A*A^-1 deviation from orthogonality  is 4.90D-15 for   3855   1885.
 Iteration    1 A^-1*A deviation from unit magnitude is 5.33D-15 for   3070.
 Iteration    1 A^-1*A deviation from orthogonality  is 1.42D-14 for   3517   3470.
 Restarting incremental Fock formation.
 Error on total polarization charges =  0.07920
 SCF Done:  E(UPBE1PBE) =  -1554.33849227     A.U. after   23 cycles
            NFock= 23  Conv=0.34D-08     -V/T= 2.0471
 <Sx>= 0.0000 <Sy>= 0.0000 <Sz>= 0.5000 <S**2>= 0.7576 S= 0.5038
 <L.S>= 0.000000000000E+00
 SMD-CDS (non-electrostatic) energy       (kcal/mol) =      10.59
 (included in total energy above)
 Annihilation of the first spin contaminant:
 S**2 before annihilation     0.7576,   after     0.7500

 **********************************************************************

            Population analysis using the SCF density.

 **********************************************************************

 Orbital symmetries:
 Alpha Orbitals:
       Occupied  (A) (A) (A) (A) (A) (A) (A) (A) (A) (A) (A) (A)
                 (A) (A) (A) (A) (A) (A) (A) (A) (A) (A) (A) (A)
                 (A) (A) (A) (A) (A) (A) (A) (A) (A) (A) (A) (A)
                 (A) (A) (A) (A) (A) (A) (A) (A) (A) (A) (A) (A)
                 (A) (A) (A) (A) (A) (A) (A) (A) (A) (A) (A) (A)
                 (A) (A) (A) (A) (A) (A) (A) (A) (A) (A) (A) (A)
                 (A) (A) (A) (A) (A) (A) (A) (A) (A) (A) (A) (A)
                 (A) (A) (A) (A) (A) (A) (A) (A) (A) (A) (A) (A)
                 (A) (A) (A) (A) (A) (A) (A) (A) (A) (A) (A) (A)
                 (A) (A) (A) (A) (A)
       Virtual   (A) (A) (A) (A) (A) (A) (A) (A) (A) (A) (A) (A)
                 (A) (A) (A) (A) (A) (A) (A) (A) (A) (A) (A) (A)
                 (A) (A) (A) (A) (A) (A) (A) (A) (A) (A) (A) (A)
                 (A) (A) (A) (A) (A) (A) (A) (A) (A) (A) (A) (A)
                 (A) (A) (A) (A) (A) (A) (A) (A) (A) (A) (A) (A)
                 (A) (A) (A) (A) (A) (A) (A) (A) (A) (A) (A) (A)
                 (A) (A) (A) (A) (A) (A) (A) (A) (A) (A) (A) (A)
                 (A) (A) (A) (A) (A) (A) (A) (A) (A) (A) (A) (A)
                 (A) (A) (A) (A) (A) (A) (A) (A) (A) (A) (A) (A)
                 (A) (A) (A) (A) (A) (A) (A) (A) (A) (A) (A) (A)
                 (A) (A) (A) (A) (A) (A) (A) (A) (A) (A) (A) (A)
                 (A) (A) (A) (A) (A) (A) (A) (A) (A) (A) (A) (A)
                 (A) (A) (A) (A) (A) (A) (A) (A) (A) (A) (A) (A)
                 (A) (A) (A) (A) (A) (A) (A) (A) (A) (A) (A) (A)
                 (A) (A) (A) (A) (A) (A) (A) (A) (A) (A) (A) (A)
                 (A) (A) (A) (A) (A) (A) (A) (A) (A) (A) (A) (A)
                 (A) (A) (A) (A) (A) (A) (A) (A) (A) (A) (A) (A)
                 (A) (A) (A) (A) (A) (A) (A) (A) (A) (A) (A) (A)
                 (A) (A) (A) (A) (A) (A) (A) (A) (A) (A) (A) (A)
                 (A) (A) (A) (A) (A) (A) (A) (A) (A) (A) (A) (A)
                 (A) (A) (A) (A) (A) (A) (A) (A) (A) (A) (A) (A)
                 (A) (A) (A) (A) (A) (A) (A) (A) (A) (A) (A) (A)
                 (A) (A) (A) (A) (A) (A) (A) (A) (A) (A) (A) (A)
                 (A) (A) (A) (A) (A) (A) (A) (A) (A) (A) (A) (A)
                 (A) (A) (A) (A) (A) (A) (A) (A) (A) (A) (A) (A)
                 (A) (A) (A) (A) (A) (A) (A) (A) (A) (A) (A) (A)
                 (A) (A) (A) (A) (A) (A) (A) (A) (A) (A) (A) (A)
                 (A) (A) (A) (A) (A) (A) (A) (A) (A) (A) (A) (A)
                 (A) (A) (A) (A) (A) (A) (A) (A) (A) (A) (A) (A)
                 (A) (A) (A) (A) (A) (A) (A) (A) (A) (A) (A) (A)
                 (A) (A) (A) (A) (A) (A) (A) (A) (A) (A) (A) (A)
                 (A) (A) (A) (A) (A) (A) (A) (A) (A) (A) (A) (A)
                 (A) (A) (A) (A) (A) (A) (A) (A) (A) (A) (A) (A)
                 (A) (A) (A) (A) (A) (A) (A) (A) (A) (A) (A) (A)
                 (A) (A) (A) (A) (A) (A) (A) (A) (A) (A) (A) (A)
                 (A) (A) (A) (A) (A) (A) (A) (A) (A) (A) (A) (A)
                 (A) (A) (A) (A) (A) (A) (A) (A) (A) (A) (A) (A)
                 (A) (A) (A) (A) (A) (A) (A) (A) (A) (A) (A) (A)
                 (A) (A) (A) (A) (A) (A) (A) (A) (A) (A) (A) (A)
                 (A) (A) (A) (A) (A) (A) (A) (A) (A) (A) (A) (A)
                 (A) (A) (A) (A) (A) (A) (A) (A) (A) (A) (A) (A)
                 (A) (A) (A) (A) (A) (A) (A) (A) (A) (A) (A) (A)
                 (A) (A) (A) (A) (A) (A) (A) (A) (A) (A) (A) (A)
                 (A) (A) (A) (A) (A) (A) (A) (A) (A) (A) (A) (A)
                 (A) (A) (A) (A) (A) (A) (A) (A) (A) (A) (A) (A)
                 (A) (A) (A) (A) (A) (A) (A) (A) (A) (A) (A) (A)
                 (A) (A) (A) (A) (A) (A) (A) (A) (A) (A) (A) (A)
                 (A) (A) (A) (A) (A) (A) (A) (A) (A) (A) (A) (A)
                 (A) (A) (A) (A) (A) (A) (A) (A) (A) (A) (A) (A)
                 (A) (A) (A) (A) (A) (A) (A) (A) (A) (A) (A) (A)
                 (A) (A) (A) (A) (A) (A) (A) (A) (A) (A) (A) (A)
                 (A) (A) (A) (A) (A) (A) (A) (A) (A) (A) (A) (A)
                 (A) (A) (A) (A) (A) (A) (A) (A) (A) (A) (A) (A)
                 (A) (A) (A) (A) (A) (A) (A) (A) (A) (A) (A) (A)
                 (A) (A) (A) (A) (A) (A) (A) (A) (A) (A) (A) (A)
                 (A) (A) (A) (A) (A) (A) (A) (A) (A) (A) (A) (A)
                 (A) (A) (A) (A) (A) (A) (A) (A) (A) (A) (A) (A)
                 (A) (A) (A) (A) (A) (A) (A) (A) (A) (A) (A) (A)
                 (A) (A) (A) (A) (A) (A) (A) (A) (A) (A) (A) (A)
                 (A) (A) (A) (A) (A) (A) (A) (A) (A) (A) (A) (A)
                 (A) (A) (A) (A) (A) (A) (A) (A) (A) (A) (A) (A)
                 (A) (A) (A) (A) (A) (A) (A) (A) (A) (A) (A) (A)
                 (A) (A) (A) (A) (A) (A) (A) (A) (A) (A) (A) (A)
                 (A) (A) (A) (A) (A) (A) (A) (A) (A) (A) (A) (A)
                 (A) (A) (A) (A) (A) (A) (A) (A) (A) (A) (A) (A)
                 (A) (A) (A) (A) (A) (A) (A) (A) (A) (A) (A) (A)
                 (A) (A) (A) (A) (A) (A) (A) (A) (A) (A) (A) (A)
                 (A) (A) (A) (A) (A) (A) (A) (A) (A) (A) (A) (A)
                 (A) (A) (A) (A) (A) (A) (A) (A) (A) (A) (A) (A)
                 (A) (A) (A) (A) (A) (A) (A) (A) (A) (A) (A) (A)
                 (A) (A) (A) (A) (A) (A) (A) (A) (A) (A) (A) (A)
                 (A) (A) (A) (A) (A) (A) (A) (A) (A) (A) (A) (A)
                 (A) (A) (A) (A) (A) (A) (A) (A) (A) (A) (A) (A)
                 (A) (A) (A) (A) (A) (A) (A) (A) (A) (A) (A) (A)
                 (A) (A) (A) (A) (A) (A) (A) (A) (A) (A) (A) (A)
                 (A) (A) (A) (A) (A) (A) (A) (A) (A) (A) (A) (A)
                 (A) (A) (A) (A) (A) (A) (A) (A) (A) (A) (A) (A)
                 (A) (A) (A) (A) (A) (A) (A) (A) (A) (A) (A) (A)
                 (A) (A) (A) (A) (A) (A) (A) (A) (A) (A) (A) (A)
                 (A) (A) (A) (A) (A) (A) (A) (A) (A) (A) (A) (A)
                 (A) (A) (A) (A) (A) (A) (A) (A) (A) (A) (A) (A)
                 (A) (A) (A) (A) (A) (A) (A) (A) (A) (A) (A) (A)
                 (A) (A) (A) (A) (A) (A) (A) (A) (A) (A) (A) (A)
                 (A) (A) (A) (A) (A) (A) (A) (A) (A) (A) (A) (A)
                 (A) (A) (A) (A) (A) (A) (A) (A) (A) (A) (A) (A)
                 (A) (A) (A) (A) (A) (A) (A) (A) (A) (A) (A) (A)
                 (A) (A) (A) (A) (A) (A) (A) (A) (A) (A) (A) (A)
                 (A) (A) (A) (A) (A) (A) (A) (A) (A) (A) (A) (A)
                 (A) (A) (A) (A) (A) (A) (A) (A) (A) (A) (A) (A)
                 (A) (A) (A) (A) (A) (A) (A) (A) (A) (A) (A) (A)
                 (A) (A) (A) (A) (A) (A) (A) (A) (A) (A) (A) (A)
                 (A) (A) (A) (A) (A) (A) (A) (A) (A) (A) (A) (A)
                 (A) (A) (A) (A) (A) (A) (A) (A) (A) (A) (A) (A)
                 (A) (A) (A) (A) (A) (A) (A) (A) (A) (A) (A) (A)
                 (A) (A) (A) (A) (A) (A) (A) (A) (A) (A) (A) (A)
                 (A) (A) (A) (A) (A) (A) (A) (A) (A) (A) (A) (A)
                 (A) (A) (A) (A) (A) (A) (A) (A) (A) (A) (A) (A)
                 (A) (A) (A) (A) (A) (A) (A) (A) (A) (A) (A) (A)
                 (A) (A) (A) (A) (A) (A) (A) (A) (A) (A) (A) (A)
                 (A) (A) (A) (A) (A) (A) (A) (A) (A) (A) (A) (A)
                 (A) (A) (A) (A) (A) (A) (A) (A) (A) (A) (A)
 Beta  Orbitals:
       Occupied  (A) (A) (A) (A) (A) (A) (A) (A) (A) (A) (A) (A)
                 (A) (A) (A) (A) (A) (A) (A) (A) (A) (A) (A) (A)
                 (A) (A) (A) (A) (A) (A) (A) (A) (A) (A) (A) (A)
                 (A) (A) (A) (A) (A) (A) (A) (A) (A) (A) (A) (A)
                 (A) (A) (A) (A) (A) (A) (A) (A) (A) (A) (A) (A)
                 (A) (A) (A) (A) (A) (A) (A) (A) (A) (A) (A) (A)
                 (A) (A) (A) (A) (A) (A) (A) (A) (A) (A) (A) (A)
                 (A) (A) (A) (A) (A) (A) (A) (A) (A) (A) (A) (A)
                 (A) (A) (A) (A) (A) (A) (A) (A) (A) (A) (A) (A)
                 (A) (A) (A) (A)
       Virtual   (A) (A) (A) (A) (A) (A) (A) (A) (A) (A) (A) (A)
                 (A) (A) (A) (A) (A) (A) (A) (A) (A) (A) (A) (A)
                 (A) (A) (A) (A) (A) (A) (A) (A) (A) (A) (A) (A)
                 (A) (A) (A) (A) (A) (A) (A) (A) (A) (A) (A) (A)
                 (A) (A) (A) (A) (A) (A) (A) (A) (A) (A) (A) (A)
                 (A) (A) (A) (A) (A) (A) (A) (A) (A) (A) (A) (A)
                 (A) (A) (A) (A) (A) (A) (A) (A) (A) (A) (A) (A)
                 (A) (A) (A) (A) (A) (A) (A) (A) (A) (A) (A) (A)
                 (A) (A) (A) (A) (A) (A) (A) (A) (A) (A) (A) (A)
                 (A) (A) (A) (A) (A) (A) (A) (A) (A) (A) (A) (A)
                 (A) (A) (A) (A) (A) (A) (A) (A) (A) (A) (A) (A)
                 (A) (A) (A) (A) (A) (A) (A) (A) (A) (A) (A) (A)
                 (A) (A) (A) (A) (A) (A) (A) (A) (A) (A) (A) (A)
                 (A) (A) (A) (A) (A) (A) (A) (A) (A) (A) (A) (A)
                 (A) (A) (A) (A) (A) (A) (A) (A) (A) (A) (A) (A)
                 (A) (A) (A) (A) (A) (A) (A) (A) (A) (A) (A) (A)
                 (A) (A) (A) (A) (A) (A) (A) (A) (A) (A) (A) (A)
                 (A) (A) (A) (A) (A) (A) (A) (A) (A) (A) (A) (A)
                 (A) (A) (A) (A) (A) (A) (A) (A) (A) (A) (A) (A)
                 (A) (A) (A) (A) (A) (A) (A) (A) (A) (A) (A) (A)
                 (A) (A) (A) (A) (A) (A) (A) (A) (A) (A) (A) (A)
                 (A) (A) (A) (A) (A) (A) (A) (A) (A) (A) (A) (A)
                 (A) (A) (A) (A) (A) (A) (A) (A) (A) (A) (A) (A)
                 (A) (A) (A) (A) (A) (A) (A) (A) (A) (A) (A) (A)
                 (A) (A) (A) (A) (A) (A) (A) (A) (A) (A) (A) (A)
                 (A) (A) (A) (A) (A) (A) (A) (A) (A) (A) (A) (A)
                 (A) (A) (A) (A) (A) (A) (A) (A) (A) (A) (A) (A)
                 (A) (A) (A) (A) (A) (A) (A) (A) (A) (A) (A) (A)
                 (A) (A) (A) (A) (A) (A) (A) (A) (A) (A) (A) (A)
                 (A) (A) (A) (A) (A) (A) (A) (A) (A) (A) (A) (A)
                 (A) (A) (A) (A) (A) (A) (A) (A) (A) (A) (A) (A)
                 (A) (A) (A) (A) (A) (A) (A) (A) (A) (A) (A) (A)
                 (A) (A) (A) (A) (A) (A) (A) (A) (A) (A) (A) (A)
                 (A) (A) (A) (A) (A) (A) (A) (A) (A) (A) (A) (A)
                 (A) (A) (A) (A) (A) (A) (A) (A) (A) (A) (A) (A)
                 (A) (A) (A) (A) (A) (A) (A) (A) (A) (A) (A) (A)
                 (A) (A) (A) (A) (A) (A) (A) (A) (A) (A) (A) (A)
                 (A) (A) (A) (A) (A) (A) (A) (A) (A) (A) (A) (A)
                 (A) (A) (A) (A) (A) (A) (A) (A) (A) (A) (A) (A)
                 (A) (A) (A) (A) (A) (A) (A) (A) (A) (A) (A) (A)
                 (A) (A) (A) (A) (A) (A) (A) (A) (A) (A) (A) (A)
                 (A) (A) (A) (A) (A) (A) (A) (A) (A) (A) (A) (A)
                 (A) (A) (A) (A) (A) (A) (A) (A) (A) (A) (A) (A)
                 (A) (A) (A) (A) (A) (A) (A) (A) (A) (A) (A) (A)
                 (A) (A) (A) (A) (A) (A) (A) (A) (A) (A) (A) (A)
                 (A) (A) (A) (A) (A) (A) (A) (A) (A) (A) (A) (A)
                 (A) (A) (A) (A) (A) (A) (A) (A) (A) (A) (A) (A)
                 (A) (A) (A) (A) (A) (A) (A) (A) (A) (A) (A) (A)
                 (A) (A) (A) (A) (A) (A) (A) (A) (A) (A) (A) (A)
                 (A) (A) (A) (A) (A) (A) (A) (A) (A) (A) (A) (A)
                 (A) (A) (A) (A) (A) (A) (A) (A) (A) (A) (A) (A)
                 (A) (A) (A) (A) (A) (A) (A) (A) (A) (A) (A) (A)
                 (A) (A) (A) (A) (A) (A) (A) (A) (A) (A) (A) (A)
                 (A) (A) (A) (A) (A) (A) (A) (A) (A) (A) (A) (A)
                 (A) (A) (A) (A) (A) (A) (A) (A) (A) (A) (A) (A)
                 (A) (A) (A) (A) (A) (A) (A) (A) (A) (A) (A) (A)
                 (A) (A) (A) (A) (A) (A) (A) (A) (A) (A) (A) (A)
                 (A) (A) (A) (A) (A) (A) (A) (A) (A) (A) (A) (A)
                 (A) (A) (A) (A) (A) (A) (A) (A) (A) (A) (A) (A)
                 (A) (A) (A) (A) (A) (A) (A) (A) (A) (A) (A) (A)
                 (A) (A) (A) (A) (A) (A) (A) (A) (A) (A) (A) (A)
                 (A) (A) (A) (A) (A) (A) (A) (A) (A) (A) (A) (A)
                 (A) (A) (A) (A) (A) (A) (A) (A) (A) (A) (A) (A)
                 (A) (A) (A) (A) (A) (A) (A) (A) (A) (A) (A) (A)
                 (A) (A) (A) (A) (A) (A) (A) (A) (A) (A) (A) (A)
                 (A) (A) (A) (A) (A) (A) (A) (A) (A) (A) (A) (A)
                 (A) (A) (A) (A) (A) (A) (A) (A) (A) (A) (A) (A)
                 (A) (A) (A) (A) (A) (A) (A) (A) (A) (A) (A) (A)
                 (A) (A) (A) (A) (A) (A) (A) (A) (A) (A) (A) (A)
                 (A) (A) (A) (A) (A) (A) (A) (A) (A) (A) (A) (A)
                 (A) (A) (A) (A) (A) (A) (A) (A) (A) (A) (A) (A)
                 (A) (A) (A) (A) (A) (A) (A) (A) (A) (A) (A) (A)
                 (A) (A) (A) (A) (A) (A) (A) (A) (A) (A) (A) (A)
                 (A) (A) (A) (A) (A) (A) (A) (A) (A) (A) (A) (A)
                 (A) (A) (A) (A) (A) (A) (A) (A) (A) (A) (A) (A)
                 (A) (A) (A) (A) (A) (A) (A) (A) (A) (A) (A) (A)
                 (A) (A) (A) (A) (A) (A) (A) (A) (A) (A) (A) (A)
                 (A) (A) (A) (A) (A) (A) (A) (A) (A) (A) (A) (A)
                 (A) (A) (A) (A) (A) (A) (A) (A) (A) (A) (A) (A)
                 (A) (A) (A) (A) (A) (A) (A) (A) (A) (A) (A) (A)
                 (A) (A) (A) (A) (A) (A) (A) (A) (A) (A) (A) (A)
                 (A) (A) (A) (A) (A) (A) (A) (A) (A) (A) (A) (A)
                 (A) (A) (A) (A) (A) (A) (A) (A) (A) (A) (A) (A)
                 (A) (A) (A) (A) (A) (A) (A) (A) (A) (A) (A) (A)
                 (A) (A) (A) (A) (A) (A) (A) (A) (A) (A) (A) (A)
                 (A) (A) (A) (A) (A) (A) (A) (A) (A) (A) (A) (A)
                 (A) (A) (A) (A) (A) (A) (A) (A) (A) (A) (A) (A)
                 (A) (A) (A) (A) (A) (A) (A) (A) (A) (A) (A) (A)
                 (A) (A) (A) (A) (A) (A) (A) (A) (A) (A) (A) (A)
                 (A) (A) (A) (A) (A) (A) (A) (A) (A) (A) (A) (A)
                 (A) (A) (A) (A) (A) (A) (A) (A) (A) (A) (A) (A)
                 (A) (A) (A) (A) (A) (A) (A) (A) (A) (A) (A) (A)
                 (A) (A) (A) (A) (A) (A) (A) (A) (A) (A) (A) (A)
                 (A) (A) (A) (A) (A) (A) (A) (A) (A) (A) (A) (A)
                 (A) (A) (A) (A) (A) (A) (A) (A) (A) (A) (A) (A)
                 (A) (A) (A) (A) (A) (A) (A) (A) (A) (A) (A) (A)
                 (A) (A) (A) (A) (A) (A) (A) (A) (A) (A) (A) (A)
                 (A) (A) (A) (A) (A) (A) (A) (A) (A) (A) (A) (A)
                 (A) (A) (A) (A) (A) (A) (A) (A) (A) (A) (A) (A)
                 (A) (A) (A) (A) (A) (A) (A) (A) (A) (A) (A) (A)
                 (A) (A) (A) (A) (A) (A) (A) (A) (A) (A) (A) (A)
 The electronic state is 2-A.
 Alpha  occ. eigenvalues --  -77.25637 -19.25837 -19.17737 -19.13819 -14.43333
 Alpha  occ. eigenvalues --  -14.42854 -10.31711 -10.28966 -10.28519 -10.26121
 Alpha  occ. eigenvalues --  -10.25162 -10.25145 -10.24952 -10.24662 -10.24433
 Alpha  occ. eigenvalues --  -10.24180 -10.24110 -10.23637 -10.20948 -10.20945
 Alpha  occ. eigenvalues --  -10.20882 -10.20812 -10.20775 -10.20671 -10.19848
 Alpha  occ. eigenvalues --  -10.19829  -6.63082  -4.76747  -4.76659  -4.76455
 Alpha  occ. eigenvalues --   -3.05109  -1.89162  -1.87785  -1.87370  -1.13289
 Alpha  occ. eigenvalues --   -1.00857  -0.96868  -0.92877  -0.90922  -0.85189
 Alpha  occ. eigenvalues --   -0.83842  -0.83377  -0.82715  -0.77754  -0.77166
 Alpha  occ. eigenvalues --   -0.74178  -0.70595  -0.70426  -0.70171  -0.69659
 Alpha  occ. eigenvalues --   -0.69229  -0.66183  -0.65993  -0.63294  -0.62148
 Alpha  occ. eigenvalues --   -0.57745  -0.57540  -0.56192  -0.53536  -0.53209
 Alpha  occ. eigenvalues --   -0.52141  -0.51306  -0.50358  -0.48567  -0.47779
 Alpha  occ. eigenvalues --   -0.46986  -0.46345  -0.46152  -0.46045  -0.45451
 Alpha  occ. eigenvalues --   -0.45217  -0.44727  -0.44480  -0.44308  -0.43659
 Alpha  occ. eigenvalues --   -0.43628  -0.42934  -0.42345  -0.41933  -0.41822
 Alpha  occ. eigenvalues --   -0.41146  -0.40148  -0.39665  -0.39176  -0.38940
 Alpha  occ. eigenvalues --   -0.38587  -0.38300  -0.38067  -0.37088  -0.36792
 Alpha  occ. eigenvalues --   -0.36567  -0.36327  -0.35996  -0.35573  -0.34823
 Alpha  occ. eigenvalues --   -0.34762  -0.34281  -0.34082  -0.33639  -0.33320
 Alpha  occ. eigenvalues --   -0.32850  -0.32612  -0.31622  -0.31060  -0.29739
 Alpha  occ. eigenvalues --   -0.29440  -0.28600  -0.28166  -0.27063  -0.26869
 Alpha  occ. eigenvalues --   -0.23708  -0.21505  -0.19762
 Alpha virt. eigenvalues --   -0.04148  -0.02227  -0.00330   0.00569   0.01473
 Alpha virt. eigenvalues --    0.02100   0.02329   0.03071   0.03367   0.05145
 Alpha virt. eigenvalues --    0.06093   0.07548   0.07609   0.07828   0.07912
 Alpha virt. eigenvalues --    0.08730   0.08810   0.09602   0.09808   0.10080
 Alpha virt. eigenvalues --    0.10253   0.10759   0.11096   0.11652   0.11788
 Alpha virt. eigenvalues --    0.12136   0.12425   0.12716   0.13023   0.13214
 Alpha virt. eigenvalues --    0.13327   0.14075   0.14545   0.14690   0.15111
 Alpha virt. eigenvalues --    0.15376   0.15714   0.15965   0.16252   0.16476
 Alpha virt. eigenvalues --    0.16647   0.17012   0.17585   0.17776   0.17867
 Alpha virt. eigenvalues --    0.18311   0.18712   0.18829   0.19086   0.19484
 Alpha virt. eigenvalues --    0.19754   0.20165   0.20239   0.20509   0.20807
 Alpha virt. eigenvalues --    0.21254   0.21606   0.21688   0.22227   0.22586
 Alpha virt. eigenvalues --    0.22856   0.23471   0.24254   0.24755   0.24926
 Alpha virt. eigenvalues --    0.25860   0.26193   0.26387   0.27227   0.27485
 Alpha virt. eigenvalues --    0.28153   0.28427   0.28724   0.29211   0.29519
 Alpha virt. eigenvalues --    0.29757   0.30688   0.30910   0.31119   0.31478
 Alpha virt. eigenvalues --    0.31986   0.32518   0.32640   0.33682   0.33881
 Alpha virt. eigenvalues --    0.34400   0.34563   0.34821   0.34962   0.35582
 Alpha virt. eigenvalues --    0.36060   0.36371   0.37260   0.37518   0.38323
 Alpha virt. eigenvalues --    0.38565   0.38889   0.38925   0.39380   0.39895
 Alpha virt. eigenvalues --    0.40438   0.40967   0.41179   0.41307   0.41942
 Alpha virt. eigenvalues --    0.42338   0.42505   0.42792   0.43429   0.43766
 Alpha virt. eigenvalues --    0.44203   0.44318   0.44543   0.44737   0.45148
 Alpha virt. eigenvalues --    0.45554   0.45794   0.46188   0.46373   0.46462
 Alpha virt. eigenvalues --    0.46744   0.46912   0.47140   0.47382   0.47563
 Alpha virt. eigenvalues --    0.48052   0.48193   0.48714   0.48912   0.49101
 Alpha virt. eigenvalues --    0.49486   0.49776   0.50262   0.50491   0.50791
 Alpha virt. eigenvalues --    0.50887   0.50893   0.51227   0.51910   0.52104
 Alpha virt. eigenvalues --    0.52494   0.52563   0.52743   0.53005   0.53117
 Alpha virt. eigenvalues --    0.53338   0.54027   0.54482   0.54660   0.54943
 Alpha virt. eigenvalues --    0.55245   0.55574   0.55782   0.55880   0.56314
 Alpha virt. eigenvalues --    0.56380   0.57023   0.57360   0.57797   0.58155
 Alpha virt. eigenvalues --    0.58568   0.58734   0.58935   0.59235   0.59544
 Alpha virt. eigenvalues --    0.59915   0.60513   0.61122   0.61308   0.62110
 Alpha virt. eigenvalues --    0.62378   0.62506   0.62654   0.63433   0.63735
 Alpha virt. eigenvalues --    0.64568   0.64703   0.65093   0.65437   0.66077
 Alpha virt. eigenvalues --    0.66601   0.66648   0.67010   0.67813   0.68822
 Alpha virt. eigenvalues --    0.69200   0.69909   0.70908   0.71677   0.72099
 Alpha virt. eigenvalues --    0.72251   0.73258   0.73551   0.73983   0.74773
 Alpha virt. eigenvalues --    0.74990   0.75370   0.75504   0.76039   0.76373
 Alpha virt. eigenvalues --    0.77418   0.77711   0.78480   0.79079   0.79199
 Alpha virt. eigenvalues --    0.79654   0.80011   0.80492   0.81211   0.81474
 Alpha virt. eigenvalues --    0.82333   0.82754   0.83087   0.83173   0.83804
 Alpha virt. eigenvalues --    0.84051   0.84383   0.85151   0.85938   0.86528
 Alpha virt. eigenvalues --    0.86770   0.86934   0.87780   0.88056   0.88332
 Alpha virt. eigenvalues --    0.88743   0.89357   0.89843   0.90023   0.90805
 Alpha virt. eigenvalues --    0.91284   0.91655   0.92461   0.92905   0.93129
 Alpha virt. eigenvalues --    0.93644   0.93876   0.94068   0.94743   0.95394
 Alpha virt. eigenvalues --    0.95563   0.96142   0.96258   0.96636   0.97099
 Alpha virt. eigenvalues --    0.97271   0.97684   0.98014   0.98283   0.98663
 Alpha virt. eigenvalues --    0.99089   0.99728   1.00244   1.00432   1.00823
 Alpha virt. eigenvalues --    1.01076   1.01471   1.01655   1.02224   1.02929
 Alpha virt. eigenvalues --    1.03283   1.03782   1.03954   1.04310   1.04654
 Alpha virt. eigenvalues --    1.05219   1.05849   1.06501   1.06612   1.07150
 Alpha virt. eigenvalues --    1.07959   1.08462   1.08687   1.08815   1.09156
 Alpha virt. eigenvalues --    1.09412   1.09881   1.10244   1.10964   1.11348
 Alpha virt. eigenvalues --    1.11593   1.12160   1.12270   1.12960   1.13568
 Alpha virt. eigenvalues --    1.13778   1.14217   1.14685   1.15092   1.15385
 Alpha virt. eigenvalues --    1.15516   1.15887   1.16045   1.16925   1.17039
 Alpha virt. eigenvalues --    1.17751   1.18084   1.18429   1.18640   1.19171
 Alpha virt. eigenvalues --    1.19421   1.19995   1.20519   1.20937   1.21342
 Alpha virt. eigenvalues --    1.21830   1.22467   1.22824   1.23131   1.23488
 Alpha virt. eigenvalues --    1.23901   1.24081   1.24336   1.24713   1.25065
 Alpha virt. eigenvalues --    1.25516   1.26084   1.26224   1.26486   1.27136
 Alpha virt. eigenvalues --    1.27624   1.27915   1.28082   1.28454   1.29007
 Alpha virt. eigenvalues --    1.29107   1.29384   1.29788   1.30245   1.30430
 Alpha virt. eigenvalues --    1.30580   1.31386   1.31563   1.32215   1.32521
 Alpha virt. eigenvalues --    1.32749   1.33506   1.33625   1.33921   1.34180
 Alpha virt. eigenvalues --    1.34410   1.34988   1.35415   1.35580   1.35804
 Alpha virt. eigenvalues --    1.36371   1.36620   1.36787   1.36908   1.37626
 Alpha virt. eigenvalues --    1.37882   1.38365   1.38693   1.38878   1.39416
 Alpha virt. eigenvalues --    1.39642   1.40153   1.40497   1.40811   1.41711
 Alpha virt. eigenvalues --    1.41826   1.42358   1.42502   1.42819   1.43210
 Alpha virt. eigenvalues --    1.43801   1.44002   1.44320   1.44759   1.45464
 Alpha virt. eigenvalues --    1.45980   1.46581   1.46659   1.47774   1.48589
 Alpha virt. eigenvalues --    1.48947   1.49165   1.49761   1.50413   1.51014
 Alpha virt. eigenvalues --    1.51252   1.51685   1.52054   1.52450   1.52760
 Alpha virt. eigenvalues --    1.52971   1.54194   1.54465   1.55232   1.55632
 Alpha virt. eigenvalues --    1.55993   1.56445   1.57037   1.57236   1.58270
 Alpha virt. eigenvalues --    1.58587   1.59144   1.59609   1.59927   1.60124
 Alpha virt. eigenvalues --    1.60785   1.61224   1.61726   1.61938   1.62180
 Alpha virt. eigenvalues --    1.62581   1.62941   1.63503   1.64087   1.64351
 Alpha virt. eigenvalues --    1.64651   1.64881   1.66381   1.66697   1.67663
 Alpha virt. eigenvalues --    1.68030   1.68723   1.69081   1.69942   1.70307
 Alpha virt. eigenvalues --    1.70700   1.71150   1.71482   1.72921   1.73142
 Alpha virt. eigenvalues --    1.73384   1.74703   1.75144   1.76091   1.76899
 Alpha virt. eigenvalues --    1.77815   1.78321   1.78849   1.80111   1.80660
 Alpha virt. eigenvalues --    1.81487   1.82369   1.83256   1.84283   1.84980
 Alpha virt. eigenvalues --    1.85873   1.86460   1.87175   1.87207   1.88594
 Alpha virt. eigenvalues --    1.89586   1.90947   1.91706   1.92843   1.93677
 Alpha virt. eigenvalues --    1.94528   1.95443   1.96286   1.96544   1.97800
 Alpha virt. eigenvalues --    1.98724   2.00292   2.01223   2.01494   2.01865
 Alpha virt. eigenvalues --    2.03439   2.05198   2.07135   2.07788   2.08526
 Alpha virt. eigenvalues --    2.09830   2.11069   2.13419   2.14536   2.15862
 Alpha virt. eigenvalues --    2.16123   2.19002   2.20437   2.21983   2.23240
 Alpha virt. eigenvalues --    2.24010   2.25250   2.27117   2.27650   2.28794
 Alpha virt. eigenvalues --    2.29846   2.30231   2.31764   2.32826   2.34293
 Alpha virt. eigenvalues --    2.34697   2.35453   2.36869   2.37105   2.37335
 Alpha virt. eigenvalues --    2.37443   2.38915   2.39545   2.40455   2.41347
[...]
 --------------------------------------------------------


 ---------------------------------------------------------------------------------
              Anisotropic Spin Dipole Couplings in Principal Axis System
 ---------------------------------------------------------------------------------

       Atom             a.u.   MegaHertz   Gauss  10(-4) cm-1        Axes

              Baa    -0.0094    -0.363    -0.130    -0.121  0.9958 -0.0375 -0.0836
     1 N(14)  Bbb    -0.0088    -0.341    -0.122    -0.114  0.0368 -0.6714  0.7401
              Bcc     0.0183     0.705     0.251     0.235  0.0839  0.7401  0.6672
 
              Baa    -0.0047    -0.635    -0.226    -0.212  0.5779 -0.0394  0.8152
     2 C(13)  Bbb    -0.0019    -0.257    -0.092    -0.086  0.6560  0.6167 -0.4352
              Bcc     0.0066     0.892     0.318     0.297 -0.4856  0.7862  0.3822
 
              Baa    -0.0052    -0.697    -0.249    -0.232  0.4347 -0.2761  0.8572
     3 C(13)  Bbb    -0.0026    -0.355    -0.127    -0.118  0.8766 -0.0886 -0.4731
              Bcc     0.0078     1.052     0.375     0.351  0.2065  0.9570  0.2035
 
              Baa    -0.0024    -0.317    -0.113    -0.106  0.7867  0.4945 -0.3695
     4 C(13)  Bbb    -0.0003    -0.035    -0.013    -0.012  0.5838 -0.4015  0.7057
              Bcc     0.0026     0.352     0.126     0.117 -0.2006  0.7709  0.6045
 
              Baa    -0.0030    -0.408    -0.146    -0.136  0.4128  0.0264  0.9104
     5 C(13)  Bbb    -0.0001    -0.010    -0.004    -0.003  0.8845  0.2270 -0.4076
              Bcc     0.0031     0.418     0.149     0.140 -0.2174  0.9735  0.0703
 
              Baa    -0.0024    -0.328    -0.117    -0.110  0.9395 -0.0700 -0.3354
     6 C(13)  Bbb    -0.0008    -0.101    -0.036    -0.034  0.2731 -0.4382  0.8564
              Bcc     0.0032     0.430     0.153     0.143  0.2069  0.8962  0.3925
 
              Baa    -0.0036    -0.481    -0.172    -0.160  0.4878  0.8687 -0.0859
     7 C(13)  Bbb    -0.0019    -0.261    -0.093    -0.087  0.5840 -0.2516  0.7718
              Bcc     0.0055     0.742     0.265     0.248  0.6488 -0.4266 -0.6301
 
              Baa    -0.0010    -0.529    -0.189    -0.176  0.7193  0.6162 -0.3207
     8 H(1)   Bbb    -0.0009    -0.458    -0.164    -0.153  0.4662 -0.0860  0.8805
              Bcc     0.0019     0.988     0.352     0.329 -0.5150  0.7829  0.3492
 
              Baa    -0.0007    -0.370    -0.132    -0.123  0.4601 -0.0764  0.8846
     9 H(1)   Bbb    -0.0005    -0.289    -0.103    -0.096  0.8729  0.2211 -0.4350
              Bcc     0.0012     0.659     0.235     0.220 -0.1623  0.9723  0.1684
 
              Baa    -0.0012    -0.619    -0.221    -0.207  0.9497 -0.2729  0.1533
    10 H(1)   Bbb    -0.0010    -0.541    -0.193    -0.180 -0.1633 -0.0139  0.9865
              Bcc     0.0022     1.160     0.414     0.387  0.2671  0.9619  0.0578
 
              Baa    -0.0057    -0.760    -0.271    -0.254  0.7093 -0.7048  0.0068
    11 C(13)  Bbb    -0.0032    -0.424    -0.151    -0.141 -0.1871 -0.1789  0.9659
              Bcc     0.0088     1.184     0.422     0.395  0.6796  0.6864  0.2588
 
              Baa    -0.0254    -0.979    -0.349    -0.326  0.1504  0.9612  0.2313
    12 N(14)  Bbb    -0.0184    -0.709    -0.253    -0.236  0.0013 -0.2342  0.9722
              Bcc     0.0438     1.687     0.602     0.563  0.9886 -0.1459 -0.0365
 
              Baa    -0.0018    -0.945    -0.337    -0.315  0.4490  0.8803 -0.1530
    13 H(1)   Bbb    -0.0014    -0.742    -0.265    -0.247  0.5114 -0.1128  0.8519
              Bcc     0.0032     1.687     0.602     0.563  0.7327 -0.4608 -0.5009
 
              Baa    -0.0025    -1.355    -0.484    -0.452  0.4723  0.8746 -0.1092
    14 H(1)   Bbb    -0.0014    -0.750    -0.268    -0.250  0.6733 -0.2780  0.6851
              Bcc     0.0039     2.105     0.751     0.702 -0.5689  0.3971  0.7202
 
              Baa    -0.0081    -4.296    -1.533    -1.433  0.4981 -0.3084  0.8104
    15 H(1)   Bbb    -0.0073    -3.917    -1.398    -1.306 -0.5606  0.5985  0.5723
              Bcc     0.0154     8.213     2.931     2.740  0.6616  0.7394 -0.1252
 
              Baa    -0.0144    -3.115    -1.111    -1.039 -0.1597  0.9821 -0.0999
    16 P(31)  Bbb    -0.0069    -1.497    -0.534    -0.499 -0.1291  0.0796  0.9884
              Bcc     0.0213     4.612     1.646     1.538  0.9787  0.1708  0.1141
 
              Baa    -0.0021    -1.109    -0.396    -0.370  0.7372 -0.6715 -0.0749
    17 H(1)   Bbb    -0.0018    -0.980    -0.350    -0.327 -0.0355 -0.1493  0.9882
              Bcc     0.0039     2.089     0.745     0.697  0.6748  0.7258  0.1339
 
              Baa    -0.0493     1.208     0.431     0.403  0.2723  0.9579  0.0911
    18 Ru(99) Bbb     0.0057    -0.138    -0.049    -0.046  0.9417 -0.2847  0.1791
              Bcc     0.0437    -1.070    -0.382    -0.357 -0.1976 -0.0370  0.9796
 
              Baa    -0.0161    -2.167    -0.773    -0.723  0.0774  0.9509  0.2998
    19 C(13)  Bbb    -0.0077    -1.035    -0.369    -0.345  0.6254 -0.2805  0.7282
              Bcc     0.0239     3.202     1.143     1.068  0.7765  0.1311 -0.6164
 
              Baa    -0.0043    -0.583    -0.208    -0.194 -0.1278  0.5833  0.8021
    20 C(13)  Bbb    -0.0030    -0.401    -0.143    -0.134  0.1929  0.8080 -0.5568
              Bcc     0.0073     0.984     0.351     0.328  0.9729 -0.0836  0.2158
 
              Baa    -0.0025    -0.340    -0.121    -0.113 -0.3708  0.9283 -0.0295
    21 C(13)  Bbb    -0.0020    -0.271    -0.097    -0.090  0.5467  0.2438  0.8011
              Bcc     0.0046     0.611     0.218     0.204  0.7508  0.2809 -0.5979
 
              Baa    -0.0012    -0.161    -0.057    -0.054 -0.4765  0.7144  0.5125
    22 C(13)  Bbb    -0.0009    -0.126    -0.045    -0.042 -0.1522 -0.6411  0.7522
              Bcc     0.0021     0.287     0.102     0.096  0.8659  0.2804  0.4142
 
              Baa    -0.0179    -2.404    -0.858    -0.802  0.3741  0.8117  0.4485
    23 C(13)  Bbb    -0.0152    -2.034    -0.726    -0.678 -0.2699 -0.3674  0.8900
              Bcc     0.0331     4.438     1.583     1.480  0.8873 -0.4540  0.0816
 
              Baa    -0.0019    -0.251    -0.090    -0.084  0.2917  0.9411  0.1709
    24 C(13)  Bbb    -0.0010    -0.130    -0.046    -0.043 -0.4071 -0.0395  0.9125
              Bcc     0.0028     0.381     0.136     0.127  0.8656 -0.3357  0.3716
 
              Baa    -0.0018    -0.236    -0.084    -0.079 -0.0413  0.4235  0.9050
    25 C(13)  Bbb    -0.0012    -0.161    -0.057    -0.054 -0.1867  0.8865 -0.4234
              Bcc     0.0030     0.397     0.142     0.133  0.9816  0.1864 -0.0424
 
              Baa    -0.0013    -0.173    -0.062    -0.058  0.8284 -0.5040 -0.2445
    26 C(13)  Bbb    -0.0010    -0.134    -0.048    -0.045 -0.2063 -0.6803  0.7033
              Bcc     0.0023     0.307     0.110     0.103  0.5208  0.5322  0.6675
 
              Baa    -0.0008    -0.108    -0.039    -0.036 -0.2921  0.9469 -0.1343
    27 C(13)  Bbb    -0.0007    -0.097    -0.035    -0.032 -0.4737 -0.0212  0.8804
              Bcc     0.0015     0.206     0.073     0.069  0.8309  0.3208  0.4547
 
              Baa    -0.0011    -0.154    -0.055    -0.051  0.2040  0.9377 -0.2813
    28 C(13)  Bbb    -0.0010    -0.132    -0.047    -0.044 -0.6505  0.3445  0.6768
              Bcc     0.0021     0.286     0.102     0.096  0.7316  0.0449  0.6803
 
              Baa    -0.0284    -3.812    -1.360    -1.272  0.3038  0.9486  0.0889
    29 C(13)  Bbb    -0.0016    -0.216    -0.077    -0.072  0.0046 -0.0948  0.9955
              Bcc     0.0300     4.029     1.438     1.344  0.9527 -0.3020 -0.0332
 
              Baa    -0.0664     4.804     1.714     1.602  0.2759  0.9434  0.1842
    30 O(17)  Bbb    -0.0577     4.172     1.489     1.392 -0.0822 -0.1678  0.9824
              Bcc     0.1240    -8.975    -3.203    -2.994  0.9577 -0.2862  0.0312
 
              Baa    -0.0134    -7.174    -2.560    -2.393  0.1652  0.3088  0.9367
    31 H(1)   Bbb    -0.0082    -4.369    -1.559    -1.457  0.3398  0.8737 -0.3480
              Bcc     0.0216    11.543     4.119     3.850  0.9259 -0.3758 -0.0394
 
              Baa    -0.0032    -0.424    -0.151    -0.142  0.0368  0.9992 -0.0140
    32 C(13)  Bbb    -0.0025    -0.332    -0.118    -0.111  0.1400  0.0087  0.9901
              Bcc     0.0056     0.756     0.270     0.252  0.9895 -0.0384 -0.1396
 
              Baa    -0.0104    -5.546    -1.979    -1.850  0.1054 -0.1788  0.9782
    33 H(1)   Bbb    -0.0074    -3.957    -1.412    -1.320 -0.3812  0.9013  0.2058
              Bcc     0.0178     9.502     3.391     3.170  0.9185  0.3946 -0.0269
 
              Baa    -0.0022    -1.186    -0.423    -0.396 -0.3120  0.9422  0.1222
    34 H(1)   Bbb    -0.0015    -0.785    -0.280    -0.262  0.7269  0.1539  0.6693
              Bcc     0.0037     1.971     0.703     0.658 -0.6118 -0.2977  0.7329
 
              Baa    -0.0019    -0.255    -0.091    -0.085  0.7300 -0.6792  0.0763
    35 C(13)  Bbb    -0.0017    -0.233    -0.083    -0.078  0.2580  0.3771  0.8895
              Bcc     0.0036     0.488     0.174     0.163  0.6329  0.6296 -0.4505
 
              Baa    -0.0015    -0.815    -0.291    -0.272 -0.1226  0.9806  0.1527
    36 H(1)   Bbb    -0.0012    -0.617    -0.220    -0.206  0.5680 -0.0568  0.8211
              Bcc     0.0027     1.433     0.511     0.478  0.8139  0.1874 -0.5500
 
              Baa    -0.0144     1.043     0.372     0.348  0.9507  0.2275 -0.2107
    37 O(17)  Bbb     0.0030    -0.218    -0.078    -0.073  0.2021  0.0607  0.9775
              Bcc     0.0114    -0.824    -0.294    -0.275 -0.2352  0.9719 -0.0117
 
              Baa    -0.0034    -1.841    -0.657    -0.614  0.9754  0.2189 -0.0243
    38 H(1)   Bbb    -0.0021    -1.140    -0.407    -0.380 -0.1117  0.5865  0.8022
              Bcc     0.0056     2.981     1.064     0.994 -0.1899  0.7798 -0.5966
 
              Baa    -1.6714   120.941    43.155    40.342  0.2504  0.9579 -0.1401
    39 O(17)  Bbb    -1.6103   116.519    41.577    38.866  0.1884  0.0938  0.9776
              Bcc     3.2817  -237.460   -84.732   -79.208  0.9496 -0.2712 -0.1570
 
              Baa    -0.0029    -1.539    -0.549    -0.513  0.8740 -0.4808  0.0707
    40 H(1)   Bbb    -0.0025    -1.315    -0.469    -0.439  0.1697  0.4382  0.8827
              Bcc     0.0053     2.854     1.018     0.952  0.4554  0.7595 -0.4646
 
              Baa    -0.0017    -0.900    -0.321    -0.300  0.6566 -0.6388  0.4010
    41 H(1)   Bbb    -0.0016    -0.857    -0.306    -0.286 -0.0890  0.4623  0.8823
              Bcc     0.0033     1.757     0.627     0.586  0.7489  0.6150 -0.2467
 
              Baa    -0.0010    -0.560    -0.200    -0.187  0.7127 -0.6990 -0.0588
    42 H(1)   Bbb    -0.0009    -0.504    -0.180    -0.168  0.3810  0.3154  0.8691
              Bcc     0.0020     1.063     0.379     0.355  0.5889  0.6418 -0.4911
 
              Baa    -0.0019    -0.994    -0.355    -0.331  0.0572  0.9981  0.0226
    43 H(1)   Bbb    -0.0016    -0.840    -0.300    -0.280 -0.2466 -0.0078  0.9691
              Bcc     0.0034     1.834     0.654     0.612  0.9674 -0.0610  0.2457
 
              Baa    -0.0014    -0.763    -0.272    -0.255  0.1644  0.0941  0.9819
    44 H(1)   Bbb    -0.0014    -0.726    -0.259    -0.242  0.2603  0.9560 -0.1352
              Bcc     0.0028     1.489     0.531     0.497  0.9514 -0.2778 -0.1327
 
              Baa    -0.0014    -0.729    -0.260    -0.243  0.0697  0.3024  0.9506
    45 H(1)   Bbb    -0.0012    -0.665    -0.237    -0.222 -0.1878  0.9399 -0.2852
              Bcc     0.0026     1.394     0.498     0.465  0.9797  0.1586 -0.1223
 
              Baa    -0.0038    -2.036    -0.727    -0.679  0.3970  0.8462 -0.3555
    46 H(1)   Bbb    -0.0023    -1.245    -0.444    -0.415  0.5640  0.0806  0.8218
              Bcc     0.0061     3.281     1.171     1.094  0.7241 -0.5268 -0.4452
 
              Baa    -0.0163    -8.710    -3.108    -2.905  0.4903  0.6995  0.5199
    47 H(1)   Bbb    -0.0078    -4.159    -1.484    -1.387  0.2079 -0.6731  0.7097
              Bcc     0.0241    12.869     4.592     4.293  0.8464 -0.2399 -0.4754
 
              Baa    -0.0105    -5.614    -2.003    -1.872  0.5255  0.4734  0.7069
    48 H(1)   Bbb    -0.0060    -3.227    -1.151    -1.076 -0.5816 -0.4065  0.7046
              Bcc     0.0166     8.840     3.154     2.949 -0.6210  0.7814 -0.0617
 
              Baa    -0.0012    -0.650    -0.232    -0.217  0.4743  0.8473 -0.2391
    49 H(1)   Bbb    -0.0010    -0.542    -0.193    -0.181  0.0006  0.2712  0.9625
              Bcc     0.0022     1.193     0.426     0.398  0.8804 -0.4567  0.1282
 
              Baa    -0.0019    -0.996    -0.355    -0.332  0.5197  0.8517  0.0669
    50 H(1)   Bbb    -0.0014    -0.728    -0.260    -0.243 -0.3703  0.1539  0.9161
              Bcc     0.0032     1.724     0.615     0.575  0.7700 -0.5008  0.3954
 
              Baa    -0.0010    -0.532    -0.190    -0.177  0.2218  0.9749 -0.0174
    51 H(1)   Bbb    -0.0008    -0.452    -0.161    -0.151 -0.3194  0.0895  0.9434
              Bcc     0.0018     0.983     0.351     0.328  0.9213 -0.2037  0.3312
 
              Baa    -0.0012    -0.620    -0.221    -0.207 -0.1399  0.7086 -0.6916
    52 H(1)   Bbb    -0.0011    -0.605    -0.216    -0.202  0.1498  0.7056  0.6926
              Bcc     0.0023     1.225     0.437     0.409  0.9788 -0.0067 -0.2049
 
              Baa    -0.0010    -0.531    -0.189    -0.177 -0.1772  0.9452 -0.2742
    53 H(1)   Bbb    -0.0010    -0.513    -0.183    -0.171 -0.0985  0.2602  0.9605
              Bcc     0.0020     1.043     0.372     0.348  0.9792  0.1972  0.0470
 
              Baa    -0.0020    -1.049    -0.374    -0.350  0.3274 -0.3258  0.8869
    54 H(1)   Bbb    -0.0018    -0.985    -0.351    -0.328 -0.2002  0.8935  0.4020
              Bcc     0.0038     2.034     0.726     0.679  0.9234  0.3092 -0.2273
 
              Baa    -0.0007    -0.379    -0.135    -0.126 -0.1696  0.9847 -0.0396
    55 H(1)   Bbb    -0.0006    -0.346    -0.123    -0.115 -0.3658 -0.0256  0.9304
              Bcc     0.0014     0.725     0.259     0.242  0.9151  0.1723  0.3645
 
              Baa    -0.0005    -0.275    -0.098    -0.092 -0.3906  0.9204 -0.0160
    56 H(1)   Bbb    -0.0005    -0.248    -0.088    -0.083 -0.4599 -0.1800  0.8695
              Bcc     0.0010     0.523     0.186     0.174  0.7975  0.3470  0.4936
 
              Baa    -0.0008    -0.435    -0.155    -0.145 -0.4253  0.8856 -0.1868
    57 H(1)   Bbb    -0.0007    -0.399    -0.142    -0.133 -0.3600  0.0239  0.9327
              Bcc     0.0016     0.834     0.298     0.278  0.8304  0.4639  0.3086
 
              Baa    -0.0010    -0.543    -0.194    -0.181  0.1748  0.9846  0.0070
    58 H(1)   Bbb    -0.0007    -0.391    -0.139    -0.130 -0.5853  0.0982  0.8048
              Bcc     0.0017     0.933     0.333     0.311  0.7917 -0.1447  0.5935
 
              Baa    -0.0018    -0.958    -0.342    -0.319  0.0914  0.9957  0.0144
    59 H(1)   Bbb    -0.0010    -0.542    -0.193    -0.181  0.7578 -0.0601 -0.6497
              Bcc     0.0028     1.500     0.535     0.500  0.6460 -0.0703  0.7601
 
              Baa    -0.0007    -0.363    -0.130    -0.121 -0.1230  0.9923 -0.0113
    60 H(1)   Bbb    -0.0005    -0.288    -0.103    -0.096 -0.7003 -0.0787  0.7095
              Bcc     0.0012     0.651     0.232     0.217  0.7032  0.0952  0.7046
 
              Baa    -0.0007    -0.383    -0.137    -0.128  0.7129 -0.6976 -0.0714
    61 H(1)   Bbb    -0.0006    -0.319    -0.114    -0.106 -0.4393 -0.5237  0.7299
              Bcc     0.0013     0.702     0.250     0.234  0.5466  0.4890  0.6798
 
              Baa    -0.0017    -0.929    -0.332    -0.310  0.8969 -0.4236 -0.1269
    62 H(1)   Bbb    -0.0012    -0.657    -0.234    -0.219  0.2456  0.7158 -0.6537
              Bcc     0.0030     1.586     0.566     0.529  0.3677  0.5551  0.7461
 
              Baa    -0.0011    -0.604    -0.216    -0.202  0.7673 -0.6371  0.0726
    63 H(1)   Bbb    -0.0010    -0.519    -0.185    -0.173 -0.3889 -0.3724  0.8427
              Bcc     0.0021     1.124     0.401     0.375  0.5099  0.6748  0.5335
 

 ---------------------------------------------------------------------------------

 1\1\GINC-NODE259\SP\UPBE1PBE\GenECP\C20H36N2O3P1Ru1(2)\JS1212\30-Aug-2
 020\0\\# genecp pbe1pbe EmpiricalDispersion=GD3BJ scrf=(SMD,solvent=wa
 ter) geom=allcheck guess=Read\\Title Card Required\\0,2\N,0,-0.6998958
 364,1.5644445757,-0.1061138388\C,0,-1.9159571154,2.0573717929,0.188052
 2068\C,0,0.2390194965,2.3296952179,-0.6974839796\C,0,-2.226329357,3.39
 1103219,-0.0435683318\C,0,-1.2475919915,4.2184218503,-0.5909018467\C,0
 ,-0.0097304706,3.6825211027,-0.9288469767\C,0,-2.8639961912,1.05545006
 24,0.7809691922\H,0,-3.2199461582,3.7703650669,0.1974516284\H,0,-1.458
 0277673,5.2735193547,-0.7743762735\H,0,0.761617264,4.3005499891,-1.389
 6520666\C,0,1.4988695589,1.6410408876,-1.1267471457\N,0,-2.7032783463,
 -0.2744853742,0.1631801284\H,0,-3.9026258073,1.4229292851,0.7089491451
 \H,0,-2.6334294497,0.9485638118,1.8536986638\H,0,1.3106284122,1.252326
 3661,-2.1416645673\P,0,1.7939691764,0.0820791572,-0.1356781363\H,0,2.3
 516815107,2.334212279,-1.161962348\Ru,0,-0.3978407495,-0.4569584335,0.
 1582694623\C,0,-3.1922390563,-0.2676004436,-1.2364258273\C,0,2.8608570
 032,-1.0003012924,-1.27132958\C,0,-3.3966827444,-1.2813505403,0.997356
 2487\C,0,2.7920982199,0.6961351667,1.361744832\C,0,1.9023457533,-1.685
 1076087,-2.2502362543\C,0,3.5309028753,-2.0930309488,-0.4362783258\C,0
 ,3.9050898529,-0.2073033075,-2.0589234262\C,0,2.0184085076,1.87208216,
 1.9694894\C,0,4.1917468961,1.1859976013,0.9893005891\C,0,2.9040594972,
 -0.4102166904,2.4142335222\C,0,-0.4236999359,-0.5058414437,2.014701643
 6\O,0,-0.5136365481,-0.5720747729,3.1745474139\H,0,-2.6432463728,0.529
 86907,-1.7580263592\C,0,-4.6906464143,-0.0901341327,-1.4229757117\H,0,
 -2.8359660342,-1.195899154,-1.6981029053\H,0,-2.9105354678,-1.25302417
 3,1.9839367366\C,0,-3.313231203,-2.6819627387,0.4283375594\H,0,-4.4488
 549577,-0.9690530446,1.1524110214\O,0,-0.2226221061,-2.513541489,0.038
 9686894\H,0,0.0892291076,-2.8654306649,0.8815500223\O,0,-0.5253059974,
 -0.4584224572,-1.819979225\H,0,-2.2621228926,-2.9131661296,0.176755085
 \H,0,-3.939963231,-2.8054596858,-0.4675709402\H,0,-3.6744899697,-3.396
 7587228,1.183092798\H,0,-4.9081023083,-0.0682878969,-2.5013122972\H,0,
 -5.0716716765,0.8526005795,-0.9996457671\H,0,-5.2721010067,-0.91722600
 99,-0.9895109797\H,0,2.4957350085,-2.3496663917,-2.9016761479\H,0,1.36
 94859576,-0.9638343787,-2.8867328769\H,0,1.1447148283,-2.2735206346,-1
 .7085007852\H,0,3.9886493537,-2.8255214835,-1.1212952632\H,0,2.7899696
 457,-2.6305647607,0.1742497865\H,0,4.3295956297,-1.7095501178,0.214495
 1857\H,0,4.4472382468,-0.906054818,-2.7179241275\H,0,4.6494480846,0.29
 18257347,-1.4256637201\H,0,3.4399596191,0.5474525623,-2.7102551982\H,0
 ,4.8484905424,0.3674231975,0.6658604121\H,0,4.6557457203,1.6467213871,
 1.877499526\H,0,4.1738668973,1.9502730259,0.1974935446\H,0,3.487710303
 1,-1.2687332178,2.0610676985\H,0,1.920530159,-0.7731796712,2.734958509
 \H,0,3.4139973274,-0.0032795689,3.3035148058\H,0,2.5142289316,2.174626
 6114,2.9063823431\H,0,0.9799110177,1.6064712789,2.2086470942\H,0,2.007
 6367583,2.749649804,1.3060863353\\Version=ES64L-G16RevA.03\State=2-A\H
 F=-1554.3384923\S2=0.757624\S2-1=0.\S2A=0.750042\RMSD=3.356e-09\Dipole
 =0.2638172,4.7305901,1.0089488\Quadrupole=21.5676266,-3.133381,-18.434
 2456,-5.5846859,-3.598874,-7.1640087\PG=C01 [X(C20H36N2O3P1Ru1)]\\@


 Money is a good servant but a bad master.
                        -- French Proverb
 Job cpu time:       1 days  3 hours 30 minutes 58.3 seconds.
 Elapsed time:       0 days  1 hours 22 minutes 43.9 seconds.
 File lengths (MBytes):  RWF=   1881 Int=      0 D2E=      0 Chk=    135 Scr=      1
 Normal termination of Gaussian 16 at Sun Aug 30 00:23:36 2020.
