63
	Energy: -975164.6396053
N         -0.74074        1.42138       -0.09733
C         -1.96289        1.88374        0.22032
C          0.17622        2.21737       -0.68254
C         -2.30204        3.21558        0.02029
C         -1.34598        4.07348       -0.52001
C         -0.10169        3.56952       -0.88257
C         -2.88430        0.85097        0.80217
H         -3.30015        3.56986        0.28000
H         -1.57919        5.12778       -0.67888
H          0.65212        4.21228       -1.33854
C          1.44448        1.56307       -1.13985
N         -2.70439       -0.46230        0.15473
H         -3.93071        1.19911        0.74917
H         -2.63964        0.72630        1.86984
H          1.25253        1.19198       -2.16066
P          1.78133       -0.01008       -0.18518
H          2.28303        2.27367       -1.16965
Ru        -0.39601       -0.59869        0.12102
C         -3.20909       -0.43591       -1.23905
C          2.85648       -1.04703       -1.35491
C         -3.36843       -1.49999        0.97491
C          2.78394        0.59230        1.31399
C          1.90070       -1.73018       -2.33764
C          3.55725       -2.14341       -0.55043
C          3.87599       -0.21711       -2.13684
C          1.99413        1.73965        1.95477
C          4.16940        1.11761        0.93685
C          2.92947       -0.53336        2.34160
C         -0.40004       -0.68686        1.97617
O         -0.47562       -0.77910        3.13527
H         -2.68179        0.38306       -1.74960
C         -4.71270       -0.28445       -1.40559
H         -2.83982       -1.34707       -1.72405
H         -2.87188       -1.48262        1.95655
C         -3.26382       -2.88646        0.37557
H         -4.42473       -1.21202        1.14790
O         -0.18170       -2.64843       -0.04358
H          0.14647       -3.01157        0.78796
O         -0.54564       -0.56134       -1.85533
H         -2.21126       -3.09138        0.10780
H         -3.89803       -3.00367       -0.51592
H         -3.60244       -3.62393        1.11892
H         -4.94265       -0.24441       -2.48080
H         -5.10743        0.64145       -0.95834
H         -5.27286       -1.13184       -0.98342
H          2.49969       -2.36903       -3.00935
H          1.34662       -1.00652       -2.95296
H          1.16093       -2.34476       -1.80028
H          4.02159       -2.85217       -1.25567
H          2.83394       -2.70824        0.05660
H          4.35550       -1.75779        0.09962
H          4.42435       -0.89100       -2.81628
H          4.61745        0.28340       -1.50127
H          3.38880        0.54168       -2.76701
H          4.83845        0.31922        0.58911
H          4.63419        1.56882        1.82951
H          4.12758        1.89776        0.16160
H          3.52590       -1.37251        1.96409
H          1.95694       -0.92246        2.66522
H          3.44126       -0.13502        3.23371
H          2.49440        2.03236        2.89242
H          0.96381        1.44847        2.19949
H          1.95863        2.63050        1.31020
