 Entering Gaussian System, Link 0=g16
 Initial command:
 /cluster/chemistry/gaussian/g16/l1.exe "/scratch/js1212.771174/scratch/Gau-14816.inp" -scrdir="/scratch/js1212.771174/scratch/"
 Entering Link 1 = /cluster/chemistry/gaussian/g16/l1.exe PID=     14817.
  
 Copyright (c) 1988,1990,1992,1993,1995,1998,2003,2009,2016,
            Gaussian, Inc.  All Rights Reserved.
  
 This is part of the Gaussian(R) 16 program.  It is based on
 the Gaussian(R) 09 system (copyright 2009, Gaussian, Inc.),
 the Gaussian(R) 03 system (copyright 2003, Gaussian, Inc.),
 the Gaussian(R) 98 system (copyright 1998, Gaussian, Inc.),
 the Gaussian(R) 94 system (copyright 1995, Gaussian, Inc.),
 the Gaussian 92(TM) system (copyright 1992, Gaussian, Inc.),
 the Gaussian 90(TM) system (copyright 1990, Gaussian, Inc.),
 the Gaussian 88(TM) system (copyright 1988, Gaussian, Inc.),
 the Gaussian 86(TM) system (copyright 1986, Carnegie Mellon
 University), and the Gaussian 82(TM) system (copyright 1983,
 Carnegie Mellon University). Gaussian is a federally registered
 trademark of Gaussian, Inc.
  
 This software contains proprietary and confidential information,
 including trade secrets, belonging to Gaussian, Inc.
  
 This software is provided under written license and may be
 used, copied, transmitted, or stored only in accord with that
 written license.
  
 The following legend is applicable only to US Government
 contracts under FAR:
  
                    RESTRICTED RIGHTS LEGEND
  
 Use, reproduction and disclosure by the US Government is
 subject to restrictions as set forth in subparagraphs (a)
 and (c) of the Commercial Computer Software - Restricted
 Rights clause in FAR 52.227-19.
  
 Gaussian, Inc.
 340 Quinnipiac St., Bldg. 40, Wallingford CT 06492
  
  
 ---------------------------------------------------------------
 Warning -- This program may not be used in any manner that
 competes with the business of Gaussian, Inc. or will provide
 assistance to any competitor of Gaussian, Inc.  The licensee
 of this program is prohibited from giving any competitor of
 Gaussian, Inc. access to this program.  By using this program,
 the user acknowledges that Gaussian, Inc. is engaged in the
 business of creating and licensing software in the field of
 computational chemistry and represents and warrants to the
 licensee that it is not a competitor of Gaussian, Inc. and that
 it will not use this program in any manner prohibited above.
 ---------------------------------------------------------------
  

 Cite this work as:
 Gaussian 16, Revision A.03,
 M. J. Frisch, G. W. Trucks, H. B. Schlegel, G. E. Scuseria, 
 M. A. Robb, J. R. Cheeseman, G. Scalmani, V. Barone, 
 G. A. Petersson, H. Nakatsuji, X. Li, M. Caricato, A. V. Marenich, 
 J. Bloino, B. G. Janesko, R. Gomperts, B. Mennucci, H. P. Hratchian, 
 J. V. Ortiz, A. F. Izmaylov, J. L. Sonnenberg, D. Williams-Young, 
 F. Ding, F. Lipparini, F. Egidi, J. Goings, B. Peng, A. Petrone, 
 T. Henderson, D. Ranasinghe, V. G. Zakrzewski, J. Gao, N. Rega, 
 G. Zheng, W. Liang, M. Hada, M. Ehara, K. Toyota, R. Fukuda, 
 J. Hasegawa, M. Ishida, T. Nakajima, Y. Honda, O. Kitao, H. Nakai, 
 T. Vreven, K. Throssell, J. A. Montgomery, Jr., J. E. Peralta, 
 F. Ogliaro, M. J. Bearpark, J. J. Heyd, E. N. Brothers, K. N. Kudin, 
 V. N. Staroverov, T. A. Keith, R. Kobayashi, J. Normand, 
 K. Raghavachari, A. P. Rendell, J. C. Burant, S. S. Iyengar, 
 J. Tomasi, M. Cossi, J. M. Millam, M. Klene, C. Adamo, R. Cammi, 
 J. W. Ochterski, R. L. Martin, K. Morokuma, O. Farkas, 
 J. B. Foresman, and D. J. Fox, Gaussian, Inc., Wallingford CT, 2016.
 
 ******************************************
 Gaussian 16:  ES64L-G16RevA.03 25-Dec-2016
                28-Aug-2020 
 ******************************************
 %rwf=/scratch/js1212.771174/G-Cis-Mono-D-0-GP-SMD.rwf
 %nosave
 %nprocshared=20
 Will use up to   20 processors via shared memory.
 %mem=3000MB
 %oldchk=/data/js1212/200728_g16/G-Cis-Mono-D-0-GPOF.chk
 %chk=/scratch/js1212.771174/G-Cis-Mono-D-0-GP-SMD.chk
 Copying data from "/data/js1212/200728_g16/G-Cis-Mono-D-0-GPOF.chk" to current chk file "/scratch/js1212.771174/G-Cis-Mono-D-0-GP-SMD.chk"
 IOpt=  2 FromEx=T IUOpen= 4 IOptOp= 5 NList=   0 IFRang= 0 IUIn= 4 IUOut= 2.
 ----------------------------------------------------------------------
 # genecp pbe1pbe EmpiricalDispersion=GD3BJ scrf=(SMD,solvent=water) ge
 om=allcheck
 ----------------------------------------------------------------------
 1/29=7,38=1,172=1/1;
 2/12=2,40=1/2;
 3/5=7,11=2,14=-4,16=1,17=8,25=1,30=1,70=32201,72=1,74=-13,124=41/1,2,3;
 4//1;
 5/5=2,38=5,53=1/2;
 6/7=2,8=2,9=2,10=2,28=1/1;
 99/5=1,9=1/99;
 Structure from the checkpoint file:  "/scratch/js1212.771174/G-Cis-Mono-D-0-GP-SMD.chk"
 -------------------
 Title Card Required
 -------------------
 Charge =  0 Multiplicity = 2
 Redundant internal coordinates found in file.  (old form).
 H,0,-3.6905370104,-3.2718121937,1.8378939994
 C,0,-3.3750603622,-2.6854541367,0.9618846844
 H,0,-4.1113387957,-2.8691398049,0.1634869095
 H,0,-2.3746109988,-3.0338762746,0.6565966198
 H,0,1.4247838842,-0.6991579822,2.7360524122
 O,0,-0.3111875734,-2.5739048286,0.7056376432
 H,0,4.291650212,-1.7399433226,0.7433414845
 O,0,-0.5290884211,-0.1466908447,2.0086686983
 C,0,-3.286645055,-1.2291937711,1.3636540336
 H,0,2.8035005633,0.0863967164,3.5642871307
 H,0,-4.274928125,-0.8341722834,1.6735422082
 C,0,2.469677188,-0.3772575096,2.6204087601
 H,0,2.805032851,-2.7019124416,0.5425041296
 H,0,3.1047836814,-1.2537143263,2.4394891715
 H,0,-2.5916800383,-1.1179422106,2.209608011
 C,0,3.6133707732,-2.1845477548,0.0031756433
 H,0,4.1866877437,-2.9404108573,-0.5587684928
 H,0,-2.3442066369,0.9994248313,1.8101545235
 Ru,0,-0.41404302,-0.6093825467,0.1075359764
 H,0,0.6843492306,1.5905802524,2.0610910937
 N,0,-2.7243793087,-0.3571728703,0.3070679105
 C,0,-2.7561181144,1.0347856027,0.7858412475
 C,0,2.5734204257,0.6673985977,1.5035791596
 H,0,2.1253648269,2.2725304057,2.8586166721
 H,0,4.7806497876,0.2266488535,-0.9097432633
 C,0,1.7312962676,1.885503926,1.9041121239
 C,0,3.0563050066,-1.1514469836,-0.9795605487
 P,0,1.7907048977,-0.0607076035,-0.0685787618
 H,0,-3.780793841,1.4411316161,0.8306626656
 C,0,4.1897841787,-0.3521368809,-1.6279532531
 H,0,-3.2075426933,-1.4945356447,-1.3689820507
 H,0,-5.455570938,-0.9493970981,-0.3428232244
 H,0,4.8750659516,-1.0557198651,-2.1298116335
 C,0,-3.4176240391,-0.486030416,-0.9902782315
 H,0,4.336736522,1.6253379544,2.2618596968
 C,0,-0.5704193252,-1.0986499252,-1.6911688577
 C,0,4.0209146233,1.1249557655,1.3311708479
 H,0,1.5506960494,-2.5741163322,-1.6879240889
 C,0,2.326695817,-1.909174758,-2.0890535612
 H,0,4.7166441883,0.2920994008,1.1615940841
 H,0,3.0603555765,-2.5292436982,-2.6301298277
 C,0,-1.856281482,1.935364931,-0.0054941633
 N,0,-0.6718093197,1.3877288534,-0.3429114705
 C,0,-4.9188937826,-0.2373850401,-0.9864212744
 H,0,1.7953862868,2.7037168585,1.1702746451
 H,0,-2.9260195994,0.2128660184,-1.6847885851
 H,0,3.8149060543,0.3355544782,-2.4010114787
 H,0,-5.1827773848,0.7808598541,-0.6630532963
 C,0,1.5870046894,1.4121293425,-1.2174407122
 H,0,-5.3031142377,-0.3619123948,-2.0099828958
 H,0,4.1410594861,1.85497739,0.5151764443
 C,0,0.2945019553,2.1208632007,-0.9339160368
 C,0,-2.1372767347,3.263338482,-0.3040780224
 H,0,1.8558095528,-1.2415668482,-2.8243634354
 H,0,-3.1062404601,3.6857758984,-0.036004528
 H,0,1.5391875809,0.9753408009,-2.2301458637
 H,0,2.4337011065,2.1146010147,-1.2038502189
 C,0,0.0696657727,3.4615280464,-1.2386096679
 C,0,-1.1607305597,4.034232328,-0.9303609289
 H,0,0.8582110662,4.0464527196,-1.7131678465
 H,0,-1.3554184276,5.080575409,-1.1717472413
 O,0,-0.7719678527,-1.3864457527,-2.7975280831
 H,0,0.28790034,-3.0674143473,0.1340329141
 Recover connectivity data from disk.
                           ----------------------------
                           !    Current Parameters    !
                           ! (Angstroms and Degrees)  !
 --------------------------                            --------------------------
 ! Name  Definition              Value                                          !
 --------------------------------------------------------------------------------
 ! R1    R(1,2)                  1.1003                                         !
 ! R2    R(2,3)                  1.1015                                         !
 ! R3    R(2,4)                  1.1025                                         !
 ! R4    R(2,9)                  1.5133                                         !
 ! R5    R(5,12)                 1.0995                                         !
 ! R6    R(6,19)                 2.0561                                         !
 ! R7    R(6,63)                 0.9639                                         !
 ! R8    R(7,16)                 1.098                                          !
 ! R9    R(8,19)                 1.96                                           !
 ! R10   R(9,11)                 1.1085                                         !
 ! R11   R(9,15)                 1.1005                                         !
 ! R12   R(9,21)                 1.4809                                         !
 ! R13   R(10,12)                1.1033                                         !
 ! R14   R(12,14)                1.0974                                         !
 ! R15   R(12,23)                1.5328                                         !
 ! R16   R(13,16)                1.1009                                         !
 ! R17   R(16,17)                1.1026                                         !
 ! R18   R(16,27)                1.5308                                         !
 ! R19   R(18,22)                1.1046                                         !
 ! R20   R(19,28)                2.2788                                         !
 ! R21   R(19,36)                1.8706                                         !
 ! R22   R(19,43)                2.0634                                         !
 ! R23   R(20,26)                1.099                                          !
 ! R24   R(21,22)                1.4723                                         !
 ! R25   R(21,34)                1.4766                                         !
 ! R26   R(22,29)                1.1032                                         !
 ! R27   R(22,42)                1.499                                          !
 ! R28   R(23,26)                1.5341                                         !
 ! R29   R(23,28)                1.9012                                         !
 ! R30   R(23,37)                1.5278                                         !
 ! R31   R(24,26)                1.1028                                         !
 ! R32   R(25,30)                1.0954                                         !
 ! R33   R(26,45)                1.101                                          !
 ! R34   R(27,28)                1.903                                          !
 ! R35   R(27,30)                1.531                                          !
 ! R36   R(27,39)                1.5289                                         !
 ! R37   R(28,49)                1.879                                          !
 ! R38   R(30,33)                1.103                                          !
 ! R39   R(30,47)                1.1005                                         !
 ! R40   R(31,34)                1.0976                                         !
 ! R41   R(32,44)                1.0996                                         !
 ! R42   R(34,44)                1.5217                                         !
 ! R43   R(34,46)                1.1011                                         !
 ! R44   R(35,37)                1.1029                                         !
 ! R45   R(36,62)                1.1608                                         !
 ! R46   R(37,40)                1.0984                                         !
 ! R47   R(37,51)                1.1015                                         !
 ! R48   R(38,39)                1.0978                                         !
 ! R49   R(39,41)                1.1025                                         !
 ! R50   R(39,54)                1.0991                                         !
 ! R51   R(42,43)                1.3479                                         !
 ! R52   R(42,53)                1.3898                                         !
 ! R53   R(43,52)                1.3493                                         !
 ! R54   R(44,48)                1.1005                                         !
 ! R55   R(44,50)                1.1004                                         !
 ! R56   R(49,52)                1.5011                                         !
 ! R57   R(49,56)                1.1039                                         !
 ! R58   R(49,57)                1.1002                                         !
 ! R59   R(52,58)                1.3931                                         !
 ! R60   R(53,55)                1.0905                                         !
 ! R61   R(53,59)                1.3929                                         !
 ! R62   R(58,59)                1.3917                                         !
 ! R63   R(58,60)                1.0905                                         !
 ! R64   R(59,61)                1.0913                                         !
 ! A1    A(1,2,3)              107.2504                                         !
 ! A2    A(1,2,4)              108.1928                                         !
 ! A3    A(1,2,9)              108.5541                                         !
 ! A4    A(3,2,4)              110.6804                                         !
 ! A5    A(3,2,9)              113.0777                                         !
 ! A6    A(4,2,9)              108.943                                          !
 ! A7    A(19,6,63)            110.3502                                         !
 ! A8    A(2,9,11)             111.4117                                         !
 ! A9    A(2,9,15)             109.7725                                         !
 ! A10   A(2,9,21)             113.5429                                         !
 ! A11   A(11,9,15)            108.1863                                         !
 ! A12   A(11,9,21)            109.1552                                         !
 ! A13   A(15,9,21)            104.4286                                         !
 ! A14   A(5,12,10)            108.6994                                         !
 ! A15   A(5,12,14)            109.4829                                         !
 ! A16   A(5,12,23)            109.908                                          !
 ! A17   A(10,12,14)           107.5515                                         !
 ! A18   A(10,12,23)           108.4484                                         !
 ! A19   A(14,12,23)           112.6461                                         !
 ! A20   A(7,16,13)            108.2784                                         !
 ! A21   A(7,16,17)            107.4536                                         !
 ! A22   A(7,16,27)            112.5994                                         !
 ! A23   A(13,16,17)           108.0169                                         !
 ! A24   A(13,16,27)           111.3745                                         !
 ! A25   A(17,16,27)           108.9454                                         !
 ! A26   A(6,19,8)              86.9238                                         !
 ! A27   A(6,19,28)            101.7785                                         !
 ! A28   A(6,19,36)             91.9476                                         !
 ! A29   A(8,19,28)             94.2962                                         !
 ! A30   A(8,19,43)             88.6208                                         !
 ! A31   A(28,19,36)            93.9877                                         !
 ! A32   A(28,19,43)            82.5857                                         !
 ! A33   A(36,19,43)            91.8794                                         !
 ! A34   A(9,21,22)            108.4523                                         !
 ! A35   A(9,21,34)            113.4056                                         !
 ! A36   A(22,21,34)           110.9829                                         !
 ! A37   A(18,22,21)           105.2624                                         !
 ! A38   A(18,22,29)           108.6916                                         !
 ! A39   A(18,22,42)           106.5542                                         !
 ! A40   A(21,22,29)           112.4238                                         !
 ! A41   A(21,22,42)           112.5436                                         !
 ! A42   A(29,22,42)           110.9602                                         !
 ! A43   A(12,23,26)           108.287                                          !
 ! A44   A(12,23,28)           108.2797                                         !
 ! A45   A(12,23,37)           110.5151                                         !
 ! A46   A(26,23,28)           107.0977                                         !
 ! A47   A(26,23,37)           108.1643                                         !
 ! A48   A(28,23,37)           114.2945                                         !
 ! A49   A(20,26,23)           110.3142                                         !
 ! A50   A(20,26,24)           108.1177                                         !
 ! A51   A(20,26,45)           110.4943                                         !
 ! A52   A(23,26,24)           107.9683                                         !
 ! A53   A(23,26,45)           112.5897                                         !
 ! A54   A(24,26,45)           107.1752                                         !
 ! A55   A(16,27,28)           108.7546                                         !
 ! A56   A(16,27,30)           110.7808                                         !
 ! A57   A(16,27,39)           107.7618                                         !
 ! A58   A(28,27,30)           113.3199                                         !
 ! A59   A(28,27,39)           108.3058                                         !
 ! A60   A(30,27,39)           107.7411                                         !
 ! A61   A(19,28,23)           115.2534                                         !
 ! A62   A(19,28,27)           122.8498                                         !
 ! A63   A(19,28,49)            97.5329                                         !
 ! A64   A(23,28,27)           109.9727                                         !
 ! A65   A(23,28,49)           104.4804                                         !
 ! A66   A(27,28,49)           103.2194                                         !
 ! A67   A(25,30,27)           113.4228                                         !
 ! A68   A(25,30,33)           107.4723                                         !
 ! A69   A(25,30,47)           108.309                                          !
 ! A70   A(27,30,33)           108.6415                                         !
 ! A71   A(27,30,47)           111.8107                                         !
 ! A72   A(33,30,47)           106.8965                                         !
 ! A73   A(21,34,31)           107.0665                                         !
 ! A74   A(21,34,44)           116.5318                                         !
 ! A75   A(21,34,46)           106.8082                                         !
 ! A76   A(31,34,44)           109.8677                                         !
 ! A77   A(31,34,46)           106.2679                                         !
 ! A78   A(44,34,46)           109.776                                          !
 ! A79   A(23,37,35)           108.177                                          !
 ! A80   A(23,37,40)           112.9819                                         !
 ! A81   A(23,37,51)           112.6702                                         !
 ! A82   A(35,37,40)           107.0333                                         !
 ! A83   A(35,37,51)           107.0514                                         !
 ! A84   A(40,37,51)           108.6078                                         !
 ! A85   A(27,39,38)           111.8607                                         !
 ! A86   A(27,39,41)           108.5013                                         !
 ! A87   A(27,39,54)           112.8858                                         !
 ! A88   A(38,39,41)           108.0016                                         !
 ! A89   A(38,39,54)           108.0292                                         !
 ! A90   A(41,39,54)           107.3601                                         !
 ! A91   A(22,42,43)           114.556                                          !
 ! A92   A(22,42,53)           124.4787                                         !
 ! A93   A(43,42,53)           120.8043                                         !
 ! A94   A(19,43,42)           116.6391                                         !
 ! A95   A(19,43,52)           122.1436                                         !
 ! A96   A(42,43,52)           121.2145                                         !
 ! A97   A(32,44,34)           112.1587                                         !
 ! A98   A(32,44,48)           108.0656                                         !
 ! A99   A(32,44,50)           107.5019                                         !
 ! A100  A(34,44,48)           112.8614                                         !
 ! A101  A(34,44,50)           108.8827                                         !
 ! A102  A(48,44,50)           107.1168                                         !
 ! A103  A(28,49,52)           110.3619                                         !
 ! A104  A(28,49,56)           104.8005                                         !
 ! A105  A(28,49,57)           114.1721                                         !
 ! A106  A(52,49,56)           108.8318                                         !
 ! A107  A(52,49,57)           111.0286                                         !
 ! A108  A(56,49,57)           107.2947                                         !
 ! A109  A(43,52,49)           116.2856                                         !
 ! A110  A(43,52,58)           120.2063                                         !
 ! A111  A(49,52,58)           123.5061                                         !
 ! A112  A(42,53,55)           119.7997                                         !
 ! A113  A(42,53,59)           118.9251                                         !
 ! A114  A(55,53,59)           121.2711                                         !
 ! A115  A(52,58,59)           119.3574                                         !
 ! A116  A(52,58,60)           119.6482                                         !
 ! A117  A(59,58,60)           120.9944                                         !
 ! A118  A(53,59,58)           119.4499                                         !
 ! A119  A(53,59,61)           120.3322                                         !
 ! A120  A(58,59,61)           120.2166                                         !
 ! A121  L(6,19,43,8,-1)       175.5446                                         !
 ! A122  L(8,19,36,6,-1)       178.8714                                         !
 ! A123  L(19,36,62,3,-1)      175.8485                                         !
 ! A124  L(6,19,43,8,-2)       184.0512                                         !
 ! A125  L(8,19,36,6,-2)       171.7652                                         !
 ! A126  L(19,36,62,3,-2)      176.7342                                         !
 ! D1    D(1,2,9,11)           -62.726                                          !
 ! D2    D(1,2,9,15)            57.0897                                         !
 ! D3    D(1,2,9,21)           173.542                                          !
 ! D4    D(3,2,9,11)            56.1573                                         !
 ! D5    D(3,2,9,15)           175.9731                                         !
 ! D6    D(3,2,9,21)           -67.5747                                         !
 ! D7    D(4,2,9,11)           179.6679                                         !
 ! D8    D(4,2,9,15)           -60.5164                                         !
 ! D9    D(4,2,9,21)            55.9359                                         !
 ! D10   D(63,6,19,8)         -143.3537                                         !
 ! D11   D(63,6,19,28)         -49.6023                                         !
 ! D12   D(63,6,19,36)          44.8811                                         !
 ! D13   D(63,6,43,42)         152.1364                                         !
 ! D14   D(63,6,43,52)         -29.8015                                         !
 ! D15   D(2,9,21,22)          177.0168                                         !
 ! D16   D(2,9,21,34)           53.2526                                         !
 ! D17   D(11,9,21,22)          52.0641                                         !
 ! D18   D(11,9,21,34)         -71.7001                                         !
 ! D19   D(15,9,21,22)         -63.4373                                         !
 ! D20   D(15,9,21,34)         172.7986                                         !
 ! D21   D(5,12,23,26)          61.679                                          !
 ! D22   D(5,12,23,28)         -54.1227                                         !
 ! D23   D(5,12,23,37)         179.987                                          !
 ! D24   D(10,12,23,26)        -57.0237                                         !
 ! D25   D(10,12,23,28)       -172.8253                                         !
 ! D26   D(10,12,23,37)         61.2844                                         !
 ! D27   D(14,12,23,26)       -175.9467                                         !
 ! D28   D(14,12,23,28)         68.2517                                         !
 ! D29   D(14,12,23,37)        -57.6386                                         !
 ! D30   D(7,16,27,28)         -72.1811                                         !
 ! D31   D(7,16,27,30)          52.9887                                         !
 ! D32   D(7,16,27,39)         170.6207                                         !
 ! D33   D(13,16,27,28)         49.6707                                         !
 ! D34   D(13,16,27,30)        174.8404                                         !
 ! D35   D(13,16,27,39)        -67.5275                                         !
 ! D36   D(17,16,27,28)        168.7168                                         !
 ! D37   D(17,16,27,30)        -66.1134                                         !
 ! D38   D(17,16,27,39)         51.5186                                         !
 ! D39   D(6,19,28,23)         -91.1447                                         !
 ! D40   D(6,19,28,27)          47.8042                                         !
 ! D41   D(6,19,28,49)         158.902                                          !
 ! D42   D(8,19,28,23)          -3.3975                                         !
 ! D43   D(8,19,28,27)         135.5514                                         !
 ! D44   D(8,19,28,49)        -113.3508                                         !
 ! D45   D(36,19,28,23)        176.0274                                         !
 ! D46   D(36,19,28,27)        -45.0237                                         !
 ! D47   D(36,19,28,49)         66.0741                                         !
 ! D48   D(43,19,28,23)         84.6475                                         !
 ! D49   D(43,19,28,27)       -136.4036                                         !
 ! D50   D(43,19,28,49)        -25.3059                                         !
 ! D51   D(8,19,43,42)         -64.8675                                         !
 ! D52   D(8,19,43,52)         114.5304                                         !
 ! D53   D(28,19,43,42)       -159.3813                                         !
 ! D54   D(28,19,43,52)         20.0166                                         !
 ! D55   D(36,19,43,42)        106.8404                                         !
 ! D56   D(36,19,43,52)        -73.7617                                         !
 ! D57   D(9,21,22,18)          47.1623                                         !
 ! D58   D(9,21,22,29)         -70.9994                                         !
 ! D59   D(9,21,22,42)         162.8229                                         !
 ! D60   D(34,21,22,18)        172.3656                                         !
 ! D61   D(34,21,22,29)         54.2039                                         !
 ! D62   D(34,21,22,42)        -71.9738                                         !
 ! D63   D(9,21,34,31)         -67.2826                                         !
 ! D64   D(9,21,34,44)          56.1275                                         !
 ! D65   D(9,21,34,46)         179.2113                                         !
 ! D66   D(22,21,34,31)        170.3465                                         !
 ! D67   D(22,21,34,44)        -66.2435                                         !
 ! D68   D(22,21,34,46)         56.8403                                         !
 ! D69   D(18,22,42,43)         74.9099                                         !
 ! D70   D(18,22,42,53)       -100.4934                                         !
 ! D71   D(21,22,42,43)        -39.9708                                         !
 ! D72   D(21,22,42,53)        144.6258                                         !
 ! D73   D(29,22,42,43)       -166.9333                                         !
 ! D74   D(29,22,42,53)         17.6634                                         !
 ! D75   D(12,23,26,20)        -58.8658                                         !
 ! D76   D(12,23,26,24)         59.0811                                         !
 ! D77   D(12,23,26,45)        177.1907                                         !
 ! D78   D(28,23,26,20)         57.7025                                         !
 ! D79   D(28,23,26,24)        175.6494                                         !
 ! D80   D(28,23,26,45)        -66.2411                                         !
 ! D81   D(37,23,26,20)       -178.6594                                         !
 ! D82   D(37,23,26,24)        -60.7125                                         !
 ! D83   D(37,23,26,45)         57.3971                                         !
 ! D84   D(12,23,28,19)         60.7436                                         !
 ! D85   D(12,23,28,27)        -83.3103                                         !
 ! D86   D(12,23,28,49)        166.4985                                         !
 ! D87   D(26,23,28,19)        -55.8295                                         !
 ! D88   D(26,23,28,27)        160.1166                                         !
 ! D89   D(26,23,28,49)         49.9254                                         !
 ! D90   D(37,23,28,19)       -175.6111                                         !
 ! D91   D(37,23,28,27)         40.335                                          !
 ! D92   D(37,23,28,49)        -69.8563                                         !
 ! D93   D(12,23,37,35)        -63.6039                                         !
 ! D94   D(12,23,37,40)         54.6997                                         !
 ! D95   D(12,23,37,51)        178.2567                                         !
 ! D96   D(26,23,37,35)         54.7791                                         !
 ! D97   D(26,23,37,40)        173.0828                                         !
 ! D98   D(26,23,37,51)        -63.3603                                         !
 ! D99   D(28,23,37,35)        173.9612                                         !
 ! D100  D(28,23,37,40)        -67.7352                                         !
 ! D101  D(28,23,37,51)         55.8218                                         !
 ! D102  D(16,27,28,19)        -87.5192                                         !
 ! D103  D(16,27,28,23)         53.2845                                         !
 ! D104  D(16,27,28,49)        164.3027                                         !
 ! D105  D(30,27,28,19)        148.812                                          !
 ! D106  D(30,27,28,23)        -70.3842                                         !
 ! D107  D(30,27,28,49)         40.634                                          !
 ! D108  D(39,27,28,19)         29.3317                                         !
 ! D109  D(39,27,28,23)        170.1355                                         !
 ! D110  D(39,27,28,49)        -78.8463                                         !
 ! D111  D(16,27,30,25)        -62.084                                          !
 ! D112  D(16,27,30,33)         57.3529                                         !
 ! D113  D(16,27,30,47)        175.0883                                         !
 ! D114  D(28,27,30,25)         60.468                                          !
 ! D115  D(28,27,30,33)        179.905                                          !
 ! D116  D(28,27,30,47)        -62.3597                                         !
 ! D117  D(39,27,30,25)       -179.7287                                         !
 ! D118  D(39,27,30,33)        -60.2918                                         !
 ! D119  D(39,27,30,47)         57.4436                                         !
 ! D120  D(16,27,39,38)         55.5729                                         !
 ! D121  D(16,27,39,41)        -63.4649                                         !
 ! D122  D(16,27,39,54)        177.6684                                         !
 ! D123  D(28,27,39,38)        -61.9162                                         !
 ! D124  D(28,27,39,41)        179.046                                          !
 ! D125  D(28,27,39,54)         60.1793                                         !
 ! D126  D(30,27,39,38)        175.1528                                         !
 ! D127  D(30,27,39,41)         56.1151                                         !
 ! D128  D(30,27,39,54)        -62.7516                                         !
 ! D129  D(19,28,49,52)         32.9871                                         !
 ! D130  D(19,28,49,56)        -84.0254                                         !
 ! D131  D(19,28,49,57)        158.869                                          !
 ! D132  D(23,28,49,52)        -85.6073                                         !
 ! D133  D(23,28,49,56)        157.3802                                         !
 ! D134  D(23,28,49,57)         40.2746                                         !
 ! D135  D(27,28,49,52)        159.3656                                         !
 ! D136  D(27,28,49,56)         42.3531                                         !
 ! D137  D(27,28,49,57)        -74.7525                                         !
 ! D138  D(21,34,44,32)        -61.3662                                         !
 ! D139  D(21,34,44,48)         60.9836                                         !
 ! D140  D(21,34,44,50)        179.7859                                         !
 ! D141  D(31,34,44,32)         60.5854                                         !
 ! D142  D(31,34,44,48)       -177.0648                                         !
 ! D143  D(31,34,44,50)        -58.2625                                         !
 ! D144  D(46,34,44,32)        177.1017                                         !
 ! D145  D(46,34,44,48)        -60.5485                                         !
 ! D146  D(46,34,44,50)         58.2538                                         !
 ! D147  D(22,42,43,19)          6.319                                          !
 ! D148  D(22,42,43,52)       -173.085                                          !
 ! D149  D(53,42,43,19)       -178.0922                                         !
 ! D150  D(53,42,43,52)          2.5038                                         !
 ! D151  D(22,42,53,55)         -5.7243                                         !
 ! D152  D(22,42,53,59)        173.5471                                         !
 ! D153  D(43,42,53,55)        179.144                                          !
 ! D154  D(43,42,53,59)         -1.5846                                         !
 ! D155  D(19,43,52,49)         -1.4722                                         !
 ! D156  D(19,43,52,58)        179.0124                                         !
 ! D157  D(42,43,52,49)        177.8985                                         !
 ! D158  D(42,43,52,58)         -1.6169                                         !
 ! D159  D(28,49,52,43)        -23.6171                                         !
 ! D160  D(28,49,52,58)        155.8807                                         !
 ! D161  D(56,49,52,43)         90.8688                                         !
 ! D162  D(56,49,52,58)        -89.6335                                         !
 ! D163  D(57,49,52,43)       -151.2511                                         !
 ! D164  D(57,49,52,58)         28.2467                                         !
 ! D165  D(43,52,58,59)         -0.1505                                         !
 ! D166  D(43,52,58,60)        179.7924                                         !
 ! D167  D(49,52,58,59)       -179.6294                                         !
 ! D168  D(49,52,58,60)          0.3135                                         !
 ! D169  D(42,53,59,58)         -0.1619                                         !
 ! D170  D(42,53,59,61)       -179.7559                                         !
 ! D171  D(55,53,59,58)        179.0984                                         !
 ! D172  D(55,53,59,61)         -0.4956                                         !
 ! D173  D(52,58,59,53)          1.0075                                         !
 ! D174  D(52,58,59,61)       -179.3981                                         !
 ! D175  D(60,58,59,53)       -178.9346                                         !
 ! D176  D(60,58,59,61)          0.6598                                         !
 --------------------------------------------------------------------------------
 Stoichiometry    C20H36N2O3PRu(2)
 Framework group  C1[X(C20H36N2O3PRu)]
 Deg. of freedom   183
 Full point group                 C1      NOp   1
 Largest Abelian subgroup         C1      NOp   1
 Largest concise Abelian subgroup C1      NOp   1
                         Standard orientation:                         
 ---------------------------------------------------------------------
 Center     Atomic      Atomic             Coordinates (Angstroms)
 Number     Number       Type             X           Y           Z
 ---------------------------------------------------------------------
      1          1           0       -3.597129   -3.370113    1.857318
      2          6           0       -3.306863   -2.758150    0.990150
      3          1           0       -4.054199   -2.935199    0.200575
      4          1           0       -2.306511   -3.082635    0.659236
      5          1           0        1.491095   -0.734730    2.727079
      6          8           0       -0.250256   -2.589751    0.683197
      7          1           0        4.338422   -1.680604    0.660414
      8          8           0       -0.484129   -0.197818    2.047271
      9          6           0       -3.234874   -1.310478    1.424884
     10          1           0        2.871474    0.053903    3.549599
     11          1           0       -4.223735   -0.939319    1.761293
     12          6           0        2.528412   -0.392895    2.600916
     13          1           0        2.864221   -2.662131    0.462699
     14          1           0        3.174291   -1.254187    2.388117
     15          1           0       -2.526818   -1.207638    2.260989
     16          6           0        3.654329   -2.118871   -0.078180
     17          1           0        4.229687   -2.851682   -0.667887
     18          1           0       -2.320812    0.922358    1.907819
     19         44           0       -0.395547   -0.613679    0.133940
     20          1           0        0.701775    1.557646    2.119869
     21          7           0       -2.705735   -0.404625    0.379714
     22          6           0       -2.751451    0.974965    0.891984
     23          6           0        2.595292    0.679326    1.507643
     24          1           0        2.145564    2.244474    2.908138
     25          1           0        4.765958    0.332183   -0.953647
     26          6           0        1.740844    1.873522    1.951710
     27          6           0        3.063172   -1.072327   -1.026160
     28         15           0        1.796539   -0.024484   -0.067510
     29          1           0       -3.781606    1.363076    0.964347
     30          6           0        4.171818   -0.239275   -1.675016
     31          1           0       -3.200253   -1.510105   -1.314261
     32          1           0       -5.438144   -1.026658   -0.236331
     33          1           0        4.859334   -0.919381   -2.205373
     34          6           0       -3.419839   -0.514416   -0.908036
     35          1           0        4.356122    1.648303    2.257633
     36          6           0       -0.576050   -1.063021   -1.672904
     37          6           0        4.031885    1.164782    1.320944
     38          1           0        1.568387   -2.502737   -1.741821
     39          6           0        2.326243   -1.815750   -2.140482
     40          1           0        4.737867    0.347811    1.119463
     41          1           0        3.060072   -2.410651   -2.708895
     42          6           0       -1.880569    1.908728    0.106738
     43          7           0       -0.693597    1.388922   -0.264248
     44          6           0       -4.924629   -0.290889   -0.872058
     45          1           0        1.778581    2.709725    1.236561
     46          1           0       -2.952080    0.208692   -1.594179
     47          1           0        3.772126    0.460096   -2.424816
     48          1           0       -5.199146    0.714945   -0.519974
     49          6           0        1.548564    1.471390   -1.177238
     50          1           0       -5.324984   -0.397662   -1.891433
     51          1           0        4.125622    1.915694    0.520595
     52          6           0        0.250024    2.151700   -0.854399
     53          6           0       -2.188302    3.238511   -0.155184
     54          1           0        1.831570   -1.138937   -2.851353
     55          1           0       -3.159039    3.638379    0.139745
     56          1           0        1.489762    1.057814   -2.199070
     57          1           0        2.383888    2.187307   -1.161700
     58          6           0       -0.001881    3.495245   -1.123106
     59          6           0       -1.235690    4.040032   -0.779877
     60          1           0        0.768502    4.104184   -1.597288
     61          1           0       -1.451562    5.088388   -0.992840
     62          8           0       -0.792621   -1.328014   -2.782118
     63          1           0        0.346447   -3.059661    0.089632
 ---------------------------------------------------------------------
 Rotational constants (GHZ):           0.2503079           0.1550244           0.1330150
 General basis read from cards:  (5D, 7F)
 ======================================================================================================
                                       Pseudopotential Parameters
 ======================================================================================================
  Center     Atomic      Valence      Angular      Power
  Number     Number     Electrons     Momentum     of R      Exponent        Coefficient   SO-Coeffient
 ======================================================================================================
    1          1
                                   No pseudopotential on this center.
    2          6
                                   No pseudopotential on this center.
    3          1
                                   No pseudopotential on this center.
    4          1
                                   No pseudopotential on this center.
    5          1
                                   No pseudopotential on this center.
    6          8
                                   No pseudopotential on this center.
    7          1
                                   No pseudopotential on this center.
    8          8
                                   No pseudopotential on this center.
    9          6
                                   No pseudopotential on this center.
   10          1
                                   No pseudopotential on this center.
   11          1
                                   No pseudopotential on this center.
   12          6
                                   No pseudopotential on this center.
   13          1
                                   No pseudopotential on this center.
   14          1
                                   No pseudopotential on this center.
   15          1
                                   No pseudopotential on this center.
   16          6
                                   No pseudopotential on this center.
   17          1
                                   No pseudopotential on this center.
   18          1
                                   No pseudopotential on this center.
   19         44           16
                                      G and up 
                                                     2        1.0000000        0.00000000    0.00000000
                                      S - G
                                                     2       11.1052690      209.82297100    0.00000000
                                                     2        5.4147450       30.65472600    0.00000000
                                      P - G
                                                     2        9.7712710      146.33618200    0.00000000
                                                     2        5.0739910       24.12787700    0.00000000
                                      D - G
                                                     2        7.6714230       67.51589700    0.00000000
                                                     2        4.1365650        9.87010400    0.00000000
                                      F - G
                                                     2       11.3600000      -28.34061600    0.00000000
                                                     2        5.6800000       -4.94462900    0.00000000
   20          1
                                   No pseudopotential on this center.
   21          7
                                   No pseudopotential on this center.
   22          6
                                   No pseudopotential on this center.
   23          6
                                   No pseudopotential on this center.
   24          1
                                   No pseudopotential on this center.
   25          1
                                   No pseudopotential on this center.
   26          6
                                   No pseudopotential on this center.
   27          6
                                   No pseudopotential on this center.
   28         15
                                   No pseudopotential on this center.
   29          1
                                   No pseudopotential on this center.
   30          6
                                   No pseudopotential on this center.
   31          1
                                   No pseudopotential on this center.
   32          1
                                   No pseudopotential on this center.
   33          1
                                   No pseudopotential on this center.
   34          6
                                   No pseudopotential on this center.
   35          1
                                   No pseudopotential on this center.
   36          6
                                   No pseudopotential on this center.
   37          6
                                   No pseudopotential on this center.
   38          1
                                   No pseudopotential on this center.
   39          6
                                   No pseudopotential on this center.
   40          1
                                   No pseudopotential on this center.
   41          1
                                   No pseudopotential on this center.
   42          6
                                   No pseudopotential on this center.
   43          7
                                   No pseudopotential on this center.
   44          6
                                   No pseudopotential on this center.
   45          1
                                   No pseudopotential on this center.
   46          1
                                   No pseudopotential on this center.
   47          1
                                   No pseudopotential on this center.
   48          1
                                   No pseudopotential on this center.
   49          6
                                   No pseudopotential on this center.
   50          1
                                   No pseudopotential on this center.
   51          1
                                   No pseudopotential on this center.
   52          6
                                   No pseudopotential on this center.
   53          6
                                   No pseudopotential on this center.
   54          1
                                   No pseudopotential on this center.
   55          1
                                   No pseudopotential on this center.
   56          1
                                   No pseudopotential on this center.
   57          1
                                   No pseudopotential on this center.
   58          6
                                   No pseudopotential on this center.
   59          6
                                   No pseudopotential on this center.
   60          1
                                   No pseudopotential on this center.
   61          1
                                   No pseudopotential on this center.
   62          8
                                   No pseudopotential on this center.
   63          1
                                   No pseudopotential on this center.
 ======================================================================================================
 There are  1493 symmetry adapted cartesian basis functions of A   symmetry.
 There are  1324 symmetry adapted basis functions of A   symmetry.
  1324 basis functions,  2072 primitive gaussians,  1493 cartesian basis functions
   113 alpha electrons      112 beta electrons
       nuclear repulsion energy      3467.6653939068 Hartrees.
 NAtoms=   63 NActive=   63 NUniq=   63 SFac= 1.00D+00 NAtFMM=   60 NAOKFM=T Big=T
 Integral buffers will be    131072 words long.
 Raffenetti 2 integral format.
 Two-electron integral symmetry is turned on.
 Nuclear repulsion after empirical dispersion term =     3467.5698292923 Hartrees.
 ------------------------------------------------------------------------------
 Polarizable Continuum Model (PCM)
 =================================
 Model                : PCM.
 Atomic radii         : SMD-Coulomb.
 Polarization charges : Total charges.
 Charge compensation  : None.
 Solution method      : On-the-fly selection.
 Cavity type          : VdW (van der Waals Surface) (Alpha=1.000).
 Cavity algorithm     : GePol (No added spheres)
                        Default sphere list used, NSphG=   63.
                        Lebedev-Laikov grids with approx.  5.0 points / Ang**2.
                        Smoothing algorithm: York/Karplus (Gamma=1.0000).
                        Polarization charges: spherical gaussians, with
                                              point-specific exponents (IZeta= 3).
                        Self-potential: point-specific (ISelfS= 7).
                        Self-field    : sphere-specific E.n sum rule (ISelfD= 2).
 Solvent              : Water, Eps=  78.355300 Eps(inf)=   1.777849
 ------------------------------------------------------------------------------
 ------------------------------------------------------------------------------
 Atomic radii for non-electrostatic terms: SMD-CDS.
 ------------------------------------------------------------------------------
 Nuclear repulsion after PCM non-electrostatic terms =     3467.5865477419 Hartrees.
 One-electron integrals computed using PRISM.
   1 Symmetry operations used in ECPInt.
 ECPInt:  NShTT=  121278 NPrTT=  436029 LenC2=  104307 LenP2D=  244479.
 LDataN:  DoStor=T MaxTD1= 7 Len=  274
 Number of processors reduced to  11 by ecpmxn.
 NBasis=  1324 RedAO= T EigKep=  3.86D-05  NBF=  1324
 NBsUse=  1324 1.00D-06 EigRej= -1.00D+00 NBFU=  1324
 Defaulting to unpruned grid for atomic number  44.
 ExpMin= 1.60D-02 ExpMax= 3.12D+05 ExpMxC= 9.87D+02 IAcc=3 IRadAn=         5 AccDes= 0.00D+00
 Harris functional with IExCor= 1009 and IRadAn=       5 diagonalized for initial guess.
 HarFok:  IExCor= 1009 AccDes= 0.00D+00 IRadAn=         5 IDoV= 1 UseB2=F ITyADJ=14
 ICtDFT=  3500011 ScaDFX=  1.000000  1.000000  1.000000  1.000000
 Defaulting to unpruned grid for atomic number  44.
 FoFCou: FMM=F IPFlag=           0 FMFlag=      100000 FMFlg1=        2001
         NFxFlg=           0 DoJE=T BraDBF=F KetDBF=T FulRan=T
         wScrn=  0.000000 ICntrl=       500 IOpCl=  0 I1Cent=   200000004 NGrid=           0
         NMat0=    1 NMatS0=      1 NMatT0=    0 NMatD0=    1 NMtDS0=    0 NMtDT0=    0
 Petite list used in FoFCou.
 Initial guess <Sx>= 0.0000 <Sy>= 0.0000 <Sz>= 0.5000 <S**2>= 0.7500 S= 0.5000
 Requested convergence on RMS density matrix=1.00D-08 within 128 cycles.
 Requested convergence on MAX density matrix=1.00D-06.
 Requested convergence on             energy=1.00D-06.
 No special actions if energy rises.
 Defaulting to unpruned grid for atomic number  44.
 Defaulting to unpruned grid for atomic number  44.
 Defaulting to unpruned grid for atomic number  44.
 Defaulting to unpruned grid for atomic number  44.
 Defaulting to unpruned grid for atomic number  44.
 Defaulting to unpruned grid for atomic number  44.
 Defaulting to unpruned grid for atomic number  44.
 Defaulting to unpruned grid for atomic number  44.
 Defaulting to unpruned grid for atomic number  44.
 Defaulting to unpruned grid for atomic number  44.
 Defaulting to unpruned grid for atomic number  44.
 Defaulting to unpruned grid for atomic number  44.
 Defaulting to unpruned grid for atomic number  44.
 Defaulting to unpruned grid for atomic number  44.
 Defaulting to unpruned grid for atomic number  44.
 Defaulting to unpruned grid for atomic number  44.
 Defaulting to unpruned grid for atomic number  44.
 Defaulting to unpruned grid for atomic number  44.
 Defaulting to unpruned grid for atomic number  44.
 Defaulting to unpruned grid for atomic number  44.
 Inv3:  Mode=1 IEnd=    45817392.
 Iteration    1 A*A^-1 deviation from unit magnitude is 8.44D-15 for   1188.
 Iteration    1 A*A^-1 deviation from orthogonality  is 4.69D-15 for   1985    515.
 Iteration    1 A^-1*A deviation from unit magnitude is 8.44D-15 for   3908.
 Iteration    1 A^-1*A deviation from orthogonality  is 4.73D-12 for   2630   2502.
 EnCoef did    27 forward-backward iterations
 Rare condition: small coef for last iteration:  0.000D+00
 Rare condition: small coef for last iteration:  0.000D+00
 Rare condition: small coef for last iteration:  0.000D+00
 Restarting incremental Fock formation.
 Error on total polarization charges =  0.08017
 SCF Done:  E(UPBE1PBE) =  -1554.34051532     A.U. after   37 cycles
            NFock= 37  Conv=0.21D-08     -V/T= 2.0471
 <Sx>= 0.0000 <Sy>= 0.0000 <Sz>= 0.5000 <S**2>= 0.7583 S= 0.5041
 <L.S>= 0.000000000000E+00
 SMD-CDS (non-electrostatic) energy       (kcal/mol) =      10.49
 (included in total energy above)
 Annihilation of the first spin contaminant:
 S**2 before annihilation     0.7583,   after     0.7500

 **********************************************************************

            Population analysis using the SCF density.

 **********************************************************************

 Orbital symmetries:
 Alpha Orbitals:
       Occupied  (A) (A) (A) (A) (A) (A) (A) (A) (A) (A) (A) (A)
                 (A) (A) (A) (A) (A) (A) (A) (A) (A) (A) (A) (A)
                 (A) (A) (A) (A) (A) (A) (A) (A) (A) (A) (A) (A)
                 (A) (A) (A) (A) (A) (A) (A) (A) (A) (A) (A) (A)
                 (A) (A) (A) (A) (A) (A) (A) (A) (A) (A) (A) (A)
                 (A) (A) (A) (A) (A) (A) (A) (A) (A) (A) (A) (A)
                 (A) (A) (A) (A) (A) (A) (A) (A) (A) (A) (A) (A)
                 (A) (A) (A) (A) (A) (A) (A) (A) (A) (A) (A) (A)
                 (A) (A) (A) (A) (A) (A) (A) (A) (A) (A) (A) (A)
                 (A) (A) (A) (A) (A)
       Virtual   (A) (A) (A) (A) (A) (A) (A) (A) (A) (A) (A) (A)
                 (A) (A) (A) (A) (A) (A) (A) (A) (A) (A) (A) (A)
                 (A) (A) (A) (A) (A) (A) (A) (A) (A) (A) (A) (A)
                 (A) (A) (A) (A) (A) (A) (A) (A) (A) (A) (A) (A)
                 (A) (A) (A) (A) (A) (A) (A) (A) (A) (A) (A) (A)
                 (A) (A) (A) (A) (A) (A) (A) (A) (A) (A) (A) (A)
                 (A) (A) (A) (A) (A) (A) (A) (A) (A) (A) (A) (A)
                 (A) (A) (A) (A) (A) (A) (A) (A) (A) (A) (A) (A)
                 (A) (A) (A) (A) (A) (A) (A) (A) (A) (A) (A) (A)
                 (A) (A) (A) (A) (A) (A) (A) (A) (A) (A) (A) (A)
                 (A) (A) (A) (A) (A) (A) (A) (A) (A) (A) (A) (A)
                 (A) (A) (A) (A) (A) (A) (A) (A) (A) (A) (A) (A)
                 (A) (A) (A) (A) (A) (A) (A) (A) (A) (A) (A) (A)
                 (A) (A) (A) (A) (A) (A) (A) (A) (A) (A) (A) (A)
                 (A) (A) (A) (A) (A) (A) (A) (A) (A) (A) (A) (A)
                 (A) (A) (A) (A) (A) (A) (A) (A) (A) (A) (A) (A)
                 (A) (A) (A) (A) (A) (A) (A) (A) (A) (A) (A) (A)
                 (A) (A) (A) (A) (A) (A) (A) (A) (A) (A) (A) (A)
                 (A) (A) (A) (A) (A) (A) (A) (A) (A) (A) (A) (A)
                 (A) (A) (A) (A) (A) (A) (A) (A) (A) (A) (A) (A)
                 (A) (A) (A) (A) (A) (A) (A) (A) (A) (A) (A) (A)
                 (A) (A) (A) (A) (A) (A) (A) (A) (A) (A) (A) (A)
                 (A) (A) (A) (A) (A) (A) (A) (A) (A) (A) (A) (A)
                 (A) (A) (A) (A) (A) (A) (A) (A) (A) (A) (A) (A)
                 (A) (A) (A) (A) (A) (A) (A) (A) (A) (A) (A) (A)
                 (A) (A) (A) (A) (A) (A) (A) (A) (A) (A) (A) (A)
                 (A) (A) (A) (A) (A) (A) (A) (A) (A) (A) (A) (A)
                 (A) (A) (A) (A) (A) (A) (A) (A) (A) (A) (A) (A)
                 (A) (A) (A) (A) (A) (A) (A) (A) (A) (A) (A) (A)
                 (A) (A) (A) (A) (A) (A) (A) (A) (A) (A) (A) (A)
                 (A) (A) (A) (A) (A) (A) (A) (A) (A) (A) (A) (A)
                 (A) (A) (A) (A) (A) (A) (A) (A) (A) (A) (A) (A)
                 (A) (A) (A) (A) (A) (A) (A) (A) (A) (A) (A) (A)
                 (A) (A) (A) (A) (A) (A) (A) (A) (A) (A) (A) (A)
                 (A) (A) (A) (A) (A) (A) (A) (A) (A) (A) (A) (A)
                 (A) (A) (A) (A) (A) (A) (A) (A) (A) (A) (A) (A)
                 (A) (A) (A) (A) (A) (A) (A) (A) (A) (A) (A) (A)
                 (A) (A) (A) (A) (A) (A) (A) (A) (A) (A) (A) (A)
                 (A) (A) (A) (A) (A) (A) (A) (A) (A) (A) (A) (A)
                 (A) (A) (A) (A) (A) (A) (A) (A) (A) (A) (A) (A)
                 (A) (A) (A) (A) (A) (A) (A) (A) (A) (A) (A) (A)
                 (A) (A) (A) (A) (A) (A) (A) (A) (A) (A) (A) (A)
                 (A) (A) (A) (A) (A) (A) (A) (A) (A) (A) (A) (A)
                 (A) (A) (A) (A) (A) (A) (A) (A) (A) (A) (A) (A)
                 (A) (A) (A) (A) (A) (A) (A) (A) (A) (A) (A) (A)
                 (A) (A) (A) (A) (A) (A) (A) (A) (A) (A) (A) (A)
                 (A) (A) (A) (A) (A) (A) (A) (A) (A) (A) (A) (A)
                 (A) (A) (A) (A) (A) (A) (A) (A) (A) (A) (A) (A)
                 (A) (A) (A) (A) (A) (A) (A) (A) (A) (A) (A) (A)
                 (A) (A) (A) (A) (A) (A) (A) (A) (A) (A) (A) (A)
                 (A) (A) (A) (A) (A) (A) (A) (A) (A) (A) (A) (A)
                 (A) (A) (A) (A) (A) (A) (A) (A) (A) (A) (A) (A)
                 (A) (A) (A) (A) (A) (A) (A) (A) (A) (A) (A) (A)
                 (A) (A) (A) (A) (A) (A) (A) (A) (A) (A) (A) (A)
                 (A) (A) (A) (A) (A) (A) (A) (A) (A) (A) (A) (A)
                 (A) (A) (A) (A) (A) (A) (A) (A) (A) (A) (A) (A)
                 (A) (A) (A) (A) (A) (A) (A) (A) (A) (A) (A) (A)
                 (A) (A) (A) (A) (A) (A) (A) (A) (A) (A) (A) (A)
                 (A) (A) (A) (A) (A) (A) (A) (A) (A) (A) (A) (A)
                 (A) (A) (A) (A) (A) (A) (A) (A) (A) (A) (A) (A)
                 (A) (A) (A) (A) (A) (A) (A) (A) (A) (A) (A) (A)
                 (A) (A) (A) (A) (A) (A) (A) (A) (A) (A) (A) (A)
                 (A) (A) (A) (A) (A) (A) (A) (A) (A) (A) (A) (A)
                 (A) (A) (A) (A) (A) (A) (A) (A) (A) (A) (A) (A)
                 (A) (A) (A) (A) (A) (A) (A) (A) (A) (A) (A) (A)
                 (A) (A) (A) (A) (A) (A) (A) (A) (A) (A) (A) (A)
                 (A) (A) (A) (A) (A) (A) (A) (A) (A) (A) (A) (A)
                 (A) (A) (A) (A) (A) (A) (A) (A) (A) (A) (A) (A)
                 (A) (A) (A) (A) (A) (A) (A) (A) (A) (A) (A) (A)
                 (A) (A) (A) (A) (A) (A) (A) (A) (A) (A) (A) (A)
                 (A) (A) (A) (A) (A) (A) (A) (A) (A) (A) (A) (A)
                 (A) (A) (A) (A) (A) (A) (A) (A) (A) (A) (A) (A)
                 (A) (A) (A) (A) (A) (A) (A) (A) (A) (A) (A) (A)
                 (A) (A) (A) (A) (A) (A) (A) (A) (A) (A) (A) (A)
                 (A) (A) (A) (A) (A) (A) (A) (A) (A) (A) (A) (A)
                 (A) (A) (A) (A) (A) (A) (A) (A) (A) (A) (A) (A)
                 (A) (A) (A) (A) (A) (A) (A) (A) (A) (A) (A) (A)
                 (A) (A) (A) (A) (A) (A) (A) (A) (A) (A) (A) (A)
                 (A) (A) (A) (A) (A) (A) (A) (A) (A) (A) (A) (A)
                 (A) (A) (A) (A) (A) (A) (A) (A) (A) (A) (A) (A)
                 (A) (A) (A) (A) (A) (A) (A) (A) (A) (A) (A) (A)
                 (A) (A) (A) (A) (A) (A) (A) (A) (A) (A) (A) (A)
                 (A) (A) (A) (A) (A) (A) (A) (A) (A) (A) (A) (A)
                 (A) (A) (A) (A) (A) (A) (A) (A) (A) (A) (A) (A)
                 (A) (A) (A) (A) (A) (A) (A) (A) (A) (A) (A) (A)
                 (A) (A) (A) (A) (A) (A) (A) (A) (A) (A) (A) (A)
                 (A) (A) (A) (A) (A) (A) (A) (A) (A) (A) (A) (A)
                 (A) (A) (A) (A) (A) (A) (A) (A) (A) (A) (A) (A)
                 (A) (A) (A) (A) (A) (A) (A) (A) (A) (A) (A) (A)
                 (A) (A) (A) (A) (A) (A) (A) (A) (A) (A) (A) (A)
                 (A) (A) (A) (A) (A) (A) (A) (A) (A) (A) (A) (A)
                 (A) (A) (A) (A) (A) (A) (A) (A) (A) (A) (A) (A)
                 (A) (A) (A) (A) (A) (A) (A) (A) (A) (A) (A) (A)
                 (A) (A) (A) (A) (A) (A) (A) (A) (A) (A) (A) (A)
                 (A) (A) (A) (A) (A) (A) (A) (A) (A) (A) (A) (A)
                 (A) (A) (A) (A) (A) (A) (A) (A) (A) (A) (A) (A)
                 (A) (A) (A) (A) (A) (A) (A) (A) (A) (A) (A) (A)
                 (A) (A) (A) (A) (A) (A) (A) (A) (A) (A) (A) (A)
                 (A) (A) (A) (A) (A) (A) (A) (A) (A) (A) (A) (A)
                 (A) (A) (A) (A) (A) (A) (A) (A) (A) (A) (A) (A)
                 (A) (A) (A) (A) (A) (A) (A) (A) (A) (A) (A)
 Beta  Orbitals:
       Occupied  (A) (A) (A) (A) (A) (A) (A) (A) (A) (A) (A) (A)
                 (A) (A) (A) (A) (A) (A) (A) (A) (A) (A) (A) (A)
                 (A) (A) (A) (A) (A) (A) (A) (A) (A) (A) (A) (A)
                 (A) (A) (A) (A) (A) (A) (A) (A) (A) (A) (A) (A)
                 (A) (A) (A) (A) (A) (A) (A) (A) (A) (A) (A) (A)
                 (A) (A) (A) (A) (A) (A) (A) (A) (A) (A) (A) (A)
                 (A) (A) (A) (A) (A) (A) (A) (A) (A) (A) (A) (A)
                 (A) (A) (A) (A) (A) (A) (A) (A) (A) (A) (A) (A)
                 (A) (A) (A) (A) (A) (A) (A) (A) (A) (A) (A) (A)
                 (A) (A) (A) (A)
       Virtual   (A) (A) (A) (A) (A) (A) (A) (A) (A) (A) (A) (A)
                 (A) (A) (A) (A) (A) (A) (A) (A) (A) (A) (A) (A)
                 (A) (A) (A) (A) (A) (A) (A) (A) (A) (A) (A) (A)
                 (A) (A) (A) (A) (A) (A) (A) (A) (A) (A) (A) (A)
                 (A) (A) (A) (A) (A) (A) (A) (A) (A) (A) (A) (A)
                 (A) (A) (A) (A) (A) (A) (A) (A) (A) (A) (A) (A)
                 (A) (A) (A) (A) (A) (A) (A) (A) (A) (A) (A) (A)
                 (A) (A) (A) (A) (A) (A) (A) (A) (A) (A) (A) (A)
                 (A) (A) (A) (A) (A) (A) (A) (A) (A) (A) (A) (A)
                 (A) (A) (A) (A) (A) (A) (A) (A) (A) (A) (A) (A)
                 (A) (A) (A) (A) (A) (A) (A) (A) (A) (A) (A) (A)
                 (A) (A) (A) (A) (A) (A) (A) (A) (A) (A) (A) (A)
                 (A) (A) (A) (A) (A) (A) (A) (A) (A) (A) (A) (A)
                 (A) (A) (A) (A) (A) (A) (A) (A) (A) (A) (A) (A)
                 (A) (A) (A) (A) (A) (A) (A) (A) (A) (A) (A) (A)
                 (A) (A) (A) (A) (A) (A) (A) (A) (A) (A) (A) (A)
                 (A) (A) (A) (A) (A) (A) (A) (A) (A) (A) (A) (A)
                 (A) (A) (A) (A) (A) (A) (A) (A) (A) (A) (A) (A)
                 (A) (A) (A) (A) (A) (A) (A) (A) (A) (A) (A) (A)
                 (A) (A) (A) (A) (A) (A) (A) (A) (A) (A) (A) (A)
                 (A) (A) (A) (A) (A) (A) (A) (A) (A) (A) (A) (A)
                 (A) (A) (A) (A) (A) (A) (A) (A) (A) (A) (A) (A)
                 (A) (A) (A) (A) (A) (A) (A) (A) (A) (A) (A) (A)
                 (A) (A) (A) (A) (A) (A) (A) (A) (A) (A) (A) (A)
                 (A) (A) (A) (A) (A) (A) (A) (A) (A) (A) (A) (A)
                 (A) (A) (A) (A) (A) (A) (A) (A) (A) (A) (A) (A)
                 (A) (A) (A) (A) (A) (A) (A) (A) (A) (A) (A) (A)
                 (A) (A) (A) (A) (A) (A) (A) (A) (A) (A) (A) (A)
                 (A) (A) (A) (A) (A) (A) (A) (A) (A) (A) (A) (A)
                 (A) (A) (A) (A) (A) (A) (A) (A) (A) (A) (A) (A)
                 (A) (A) (A) (A) (A) (A) (A) (A) (A) (A) (A) (A)
                 (A) (A) (A) (A) (A) (A) (A) (A) (A) (A) (A) (A)
                 (A) (A) (A) (A) (A) (A) (A) (A) (A) (A) (A) (A)
                 (A) (A) (A) (A) (A) (A) (A) (A) (A) (A) (A) (A)
                 (A) (A) (A) (A) (A) (A) (A) (A) (A) (A) (A) (A)
                 (A) (A) (A) (A) (A) (A) (A) (A) (A) (A) (A) (A)
                 (A) (A) (A) (A) (A) (A) (A) (A) (A) (A) (A) (A)
                 (A) (A) (A) (A) (A) (A) (A) (A) (A) (A) (A) (A)
                 (A) (A) (A) (A) (A) (A) (A) (A) (A) (A) (A) (A)
                 (A) (A) (A) (A) (A) (A) (A) (A) (A) (A) (A) (A)
                 (A) (A) (A) (A) (A) (A) (A) (A) (A) (A) (A) (A)
                 (A) (A) (A) (A) (A) (A) (A) (A) (A) (A) (A) (A)
                 (A) (A) (A) (A) (A) (A) (A) (A) (A) (A) (A) (A)
                 (A) (A) (A) (A) (A) (A) (A) (A) (A) (A) (A) (A)
                 (A) (A) (A) (A) (A) (A) (A) (A) (A) (A) (A) (A)
                 (A) (A) (A) (A) (A) (A) (A) (A) (A) (A) (A) (A)
                 (A) (A) (A) (A) (A) (A) (A) (A) (A) (A) (A) (A)
                 (A) (A) (A) (A) (A) (A) (A) (A) (A) (A) (A) (A)
                 (A) (A) (A) (A) (A) (A) (A) (A) (A) (A) (A) (A)
                 (A) (A) (A) (A) (A) (A) (A) (A) (A) (A) (A) (A)
                 (A) (A) (A) (A) (A) (A) (A) (A) (A) (A) (A) (A)
                 (A) (A) (A) (A) (A) (A) (A) (A) (A) (A) (A) (A)
                 (A) (A) (A) (A) (A) (A) (A) (A) (A) (A) (A) (A)
                 (A) (A) (A) (A) (A) (A) (A) (A) (A) (A) (A) (A)
                 (A) (A) (A) (A) (A) (A) (A) (A) (A) (A) (A) (A)
                 (A) (A) (A) (A) (A) (A) (A) (A) (A) (A) (A) (A)
                 (A) (A) (A) (A) (A) (A) (A) (A) (A) (A) (A) (A)
                 (A) (A) (A) (A) (A) (A) (A) (A) (A) (A) (A) (A)
                 (A) (A) (A) (A) (A) (A) (A) (A) (A) (A) (A) (A)
                 (A) (A) (A) (A) (A) (A) (A) (A) (A) (A) (A) (A)
                 (A) (A) (A) (A) (A) (A) (A) (A) (A) (A) (A) (A)
                 (A) (A) (A) (A) (A) (A) (A) (A) (A) (A) (A) (A)
                 (A) (A) (A) (A) (A) (A) (A) (A) (A) (A) (A) (A)
                 (A) (A) (A) (A) (A) (A) (A) (A) (A) (A) (A) (A)
                 (A) (A) (A) (A) (A) (A) (A) (A) (A) (A) (A) (A)
                 (A) (A) (A) (A) (A) (A) (A) (A) (A) (A) (A) (A)
                 (A) (A) (A) (A) (A) (A) (A) (A) (A) (A) (A) (A)
                 (A) (A) (A) (A) (A) (A) (A) (A) (A) (A) (A) (A)
                 (A) (A) (A) (A) (A) (A) (A) (A) (A) (A) (A) (A)
                 (A) (A) (A) (A) (A) (A) (A) (A) (A) (A) (A) (A)
                 (A) (A) (A) (A) (A) (A) (A) (A) (A) (A) (A) (A)
                 (A) (A) (A) (A) (A) (A) (A) (A) (A) (A) (A) (A)
                 (A) (A) (A) (A) (A) (A) (A) (A) (A) (A) (A) (A)
                 (A) (A) (A) (A) (A) (A) (A) (A) (A) (A) (A) (A)
                 (A) (A) (A) (A) (A) (A) (A) (A) (A) (A) (A) (A)
                 (A) (A) (A) (A) (A) (A) (A) (A) (A) (A) (A) (A)
                 (A) (A) (A) (A) (A) (A) (A) (A) (A) (A) (A) (A)
                 (A) (A) (A) (A) (A) (A) (A) (A) (A) (A) (A) (A)
                 (A) (A) (A) (A) (A) (A) (A) (A) (A) (A) (A) (A)
                 (A) (A) (A) (A) (A) (A) (A) (A) (A) (A) (A) (A)
                 (A) (A) (A) (A) (A) (A) (A) (A) (A) (A) (A) (A)
                 (A) (A) (A) (A) (A) (A) (A) (A) (A) (A) (A) (A)
                 (A) (A) (A) (A) (A) (A) (A) (A) (A) (A) (A) (A)
                 (A) (A) (A) (A) (A) (A) (A) (A) (A) (A) (A) (A)
                 (A) (A) (A) (A) (A) (A) (A) (A) (A) (A) (A) (A)
                 (A) (A) (A) (A) (A) (A) (A) (A) (A) (A) (A) (A)
                 (A) (A) (A) (A) (A) (A) (A) (A) (A) (A) (A) (A)
                 (A) (A) (A) (A) (A) (A) (A) (A) (A) (A) (A) (A)
                 (A) (A) (A) (A) (A) (A) (A) (A) (A) (A) (A) (A)
                 (A) (A) (A) (A) (A) (A) (A) (A) (A) (A) (A) (A)
                 (A) (A) (A) (A) (A) (A) (A) (A) (A) (A) (A) (A)
                 (A) (A) (A) (A) (A) (A) (A) (A) (A) (A) (A) (A)
                 (A) (A) (A) (A) (A) (A) (A) (A) (A) (A) (A) (A)
                 (A) (A) (A) (A) (A) (A) (A) (A) (A) (A) (A) (A)
                 (A) (A) (A) (A) (A) (A) (A) (A) (A) (A) (A) (A)
                 (A) (A) (A) (A) (A) (A) (A) (A) (A) (A) (A) (A)
                 (A) (A) (A) (A) (A) (A) (A) (A) (A) (A) (A) (A)
                 (A) (A) (A) (A) (A) (A) (A) (A) (A) (A) (A) (A)
                 (A) (A) (A) (A) (A) (A) (A) (A) (A) (A) (A) (A)
                 (A) (A) (A) (A) (A) (A) (A) (A) (A) (A) (A) (A)
                 (A) (A) (A) (A) (A) (A) (A) (A) (A) (A) (A) (A)
 The electronic state is 2-A.
 Alpha  occ. eigenvalues --  -77.25888 -19.26136 -19.17693 -19.13890 -14.43413
 Alpha  occ. eigenvalues --  -14.42836 -10.31927 -10.28963 -10.28472 -10.25696
 Alpha  occ. eigenvalues --  -10.25245 -10.25111 -10.25053 -10.24763 -10.24403
 Alpha  occ. eigenvalues --  -10.24165 -10.24132 -10.23912 -10.21000 -10.20917
 Alpha  occ. eigenvalues --  -10.20858 -10.20853 -10.20847 -10.20423 -10.20210
 Alpha  occ. eigenvalues --  -10.19899  -6.63301  -4.76969  -4.76881  -4.76676
 Alpha  occ. eigenvalues --   -3.05359  -1.89354  -1.88164  -1.87558  -1.13737
 Alpha  occ. eigenvalues --   -1.00749  -0.96988  -0.92925  -0.90944  -0.85265
 Alpha  occ. eigenvalues --   -0.83818  -0.83401  -0.82720  -0.77893  -0.77110
 Alpha  occ. eigenvalues --   -0.74179  -0.70661  -0.70484  -0.70217  -0.69605
 Alpha  occ. eigenvalues --   -0.69342  -0.66231  -0.66001  -0.63263  -0.62224
 Alpha  occ. eigenvalues --   -0.57866  -0.57429  -0.56203  -0.53543  -0.53225
 Alpha  occ. eigenvalues --   -0.52140  -0.51284  -0.50385  -0.48811  -0.47792
 Alpha  occ. eigenvalues --   -0.46818  -0.46439  -0.46354  -0.45910  -0.45693
 Alpha  occ. eigenvalues --   -0.45386  -0.45102  -0.44485  -0.44346  -0.44191
 Alpha  occ. eigenvalues --   -0.43418  -0.43230  -0.42182  -0.42081  -0.41364
 Alpha  occ. eigenvalues --   -0.40825  -0.40322  -0.39705  -0.39187  -0.38608
 Alpha  occ. eigenvalues --   -0.38583  -0.38100  -0.38090  -0.37219  -0.36951
 Alpha  occ. eigenvalues --   -0.36799  -0.36559  -0.35948  -0.35735  -0.35189
 Alpha  occ. eigenvalues --   -0.34705  -0.34512  -0.34196  -0.33598  -0.33147
 Alpha  occ. eigenvalues --   -0.32936  -0.32636  -0.32033  -0.31257  -0.30185
 Alpha  occ. eigenvalues --   -0.29313  -0.29244  -0.27711  -0.27181  -0.26838
 Alpha  occ. eigenvalues --   -0.23726  -0.21010  -0.20094
 Alpha virt. eigenvalues --   -0.04204  -0.02243  -0.00716   0.00552   0.01283
 Alpha virt. eigenvalues --    0.01862   0.02501   0.03261   0.03369   0.05443
 Alpha virt. eigenvalues --    0.06236   0.07425   0.07546   0.07894   0.08073
 Alpha virt. eigenvalues --    0.08449   0.08940   0.09287   0.09903   0.09911
 Alpha virt. eigenvalues --    0.10264   0.10507   0.10845   0.11141   0.11784
 Alpha virt. eigenvalues --    0.11935   0.12305   0.12678   0.13147   0.13212
 Alpha virt. eigenvalues --    0.13298   0.13919   0.14457   0.14994   0.15185
 Alpha virt. eigenvalues --    0.15454   0.15543   0.15913   0.16104   0.16316
 Alpha virt. eigenvalues --    0.16816   0.17005   0.17541   0.17713   0.17814
 Alpha virt. eigenvalues --    0.18284   0.18592   0.18699   0.19168   0.19308
 Alpha virt. eigenvalues --    0.19918   0.20016   0.20394   0.20751   0.20874
 Alpha virt. eigenvalues --    0.21322   0.21842   0.22075   0.22218   0.22619
 Alpha virt. eigenvalues --    0.23577   0.23680   0.24298   0.24864   0.25205
 Alpha virt. eigenvalues --    0.25383   0.26143   0.26521   0.26827   0.27413
 Alpha virt. eigenvalues --    0.27893   0.28179   0.28609   0.29271   0.29595
 Alpha virt. eigenvalues --    0.29701   0.30622   0.30936   0.30996   0.31395
 Alpha virt. eigenvalues --    0.32170   0.32584   0.32950   0.33195   0.33750
 Alpha virt. eigenvalues --    0.33898   0.34148   0.34518   0.34680   0.35099
 Alpha virt. eigenvalues --    0.35432   0.36561   0.37352   0.37818   0.37922
 Alpha virt. eigenvalues --    0.38143   0.38863   0.39513   0.39549   0.39977
 Alpha virt. eigenvalues --    0.40074   0.40729   0.41255   0.41631   0.41962
 Alpha virt. eigenvalues --    0.42320   0.42577   0.43074   0.43470   0.43688
 Alpha virt. eigenvalues --    0.43854   0.43901   0.44300   0.44904   0.45185
 Alpha virt. eigenvalues --    0.45489   0.45513   0.46043   0.46258   0.46454
 Alpha virt. eigenvalues --    0.46870   0.47013   0.47148   0.47226   0.47499
 Alpha virt. eigenvalues --    0.47684   0.47850   0.48533   0.48977   0.49057
 Alpha virt. eigenvalues --    0.49512   0.49735   0.50187   0.50356   0.50683
 Alpha virt. eigenvalues --    0.50869   0.50915   0.51257   0.51527   0.51809
 Alpha virt. eigenvalues --    0.52143   0.52363   0.52560   0.53127   0.53297
 Alpha virt. eigenvalues --    0.53948   0.54026   0.54231   0.54558   0.54720
 Alpha virt. eigenvalues --    0.54917   0.55184   0.55331   0.55611   0.56288
 Alpha virt. eigenvalues --    0.56778   0.56871   0.57073   0.57646   0.57818
 Alpha virt. eigenvalues --    0.58147   0.58489   0.59433   0.59850   0.59894
 Alpha virt. eigenvalues --    0.60010   0.60411   0.61213   0.61606   0.61937
 Alpha virt. eigenvalues --    0.62345   0.62891   0.63184   0.63233   0.63737
 Alpha virt. eigenvalues --    0.64099   0.64510   0.65074   0.65607   0.65897
 Alpha virt. eigenvalues --    0.66282   0.66754   0.66901   0.67829   0.68041
 Alpha virt. eigenvalues --    0.68632   0.69307   0.70318   0.71264   0.71383
 Alpha virt. eigenvalues --    0.72230   0.72512   0.73072   0.74077   0.74623
 Alpha virt. eigenvalues --    0.74878   0.75696   0.75866   0.76248   0.76896
 Alpha virt. eigenvalues --    0.77469   0.77803   0.78512   0.78752   0.79008
 Alpha virt. eigenvalues --    0.79902   0.80073   0.80194   0.80647   0.81359
 Alpha virt. eigenvalues --    0.82051   0.82214   0.82728   0.83626   0.83782
 Alpha virt. eigenvalues --    0.84305   0.84800   0.85013   0.86016   0.86369
 Alpha virt. eigenvalues --    0.86499   0.87374   0.87743   0.87839   0.88314
 Alpha virt. eigenvalues --    0.88892   0.89206   0.89440   0.90339   0.90465
 Alpha virt. eigenvalues --    0.91138   0.91481   0.91998   0.92818   0.93292
 Alpha virt. eigenvalues --    0.93524   0.94196   0.94436   0.94545   0.95026
 Alpha virt. eigenvalues --    0.95356   0.95804   0.96094   0.96429   0.96943
 Alpha virt. eigenvalues --    0.97118   0.97377   0.97855   0.98589   0.99053
 Alpha virt. eigenvalues --    0.99362   0.99890   1.00268   1.00517   1.00845
 Alpha virt. eigenvalues --    1.01221   1.01531   1.01848   1.02221   1.02856
 Alpha virt. eigenvalues --    1.03298   1.03475   1.04023   1.04406   1.04918
 Alpha virt. eigenvalues --    1.05770   1.05856   1.06552   1.06848   1.07143
 Alpha virt. eigenvalues --    1.07761   1.07947   1.08020   1.08650   1.09171
 Alpha virt. eigenvalues --    1.09511   1.09635   1.09972   1.11017   1.11416
 Alpha virt. eigenvalues --    1.11587   1.12000   1.12338   1.12383   1.13686
 Alpha virt. eigenvalues --    1.14089   1.14560   1.14818   1.14989   1.15318
 Alpha virt. eigenvalues --    1.15622   1.15695   1.16269   1.16622   1.16718
 Alpha virt. eigenvalues --    1.17072   1.17688   1.18118   1.18223   1.18963
 Alpha virt. eigenvalues --    1.19588   1.19743   1.20551   1.20815   1.21157
 Alpha virt. eigenvalues --    1.21415   1.21920   1.22131   1.22998   1.23694
 Alpha virt. eigenvalues --    1.23920   1.24308   1.24381   1.24632   1.25186
 Alpha virt. eigenvalues --    1.25675   1.26042   1.26350   1.26958   1.27280
 Alpha virt. eigenvalues --    1.27703   1.27945   1.28091   1.28475   1.28795
 Alpha virt. eigenvalues --    1.29177   1.29412   1.29609   1.29958   1.30157
 Alpha virt. eigenvalues --    1.30623   1.30978   1.31448   1.31921   1.32431
 Alpha virt. eigenvalues --    1.32668   1.33071   1.33197   1.33816   1.34029
 Alpha virt. eigenvalues --    1.34123   1.34383   1.34661   1.34955   1.35459
 Alpha virt. eigenvalues --    1.35589   1.36172   1.36893   1.37527   1.37657
 Alpha virt. eigenvalues --    1.37745   1.37972   1.38576   1.39137   1.39532
 Alpha virt. eigenvalues --    1.39954   1.40361   1.40750   1.40857   1.41804
 Alpha virt. eigenvalues --    1.41825   1.42382   1.42673   1.43280   1.43578
 Alpha virt. eigenvalues --    1.44095   1.44341   1.44741   1.44912   1.45656
 Alpha virt. eigenvalues --    1.45921   1.46129   1.46460   1.47228   1.47595
 Alpha virt. eigenvalues --    1.47938   1.48244   1.49389   1.49982   1.50936
 Alpha virt. eigenvalues --    1.51372   1.51691   1.52086   1.52450   1.52946
 Alpha virt. eigenvalues --    1.53216   1.53402   1.54327   1.54902   1.55778
 Alpha virt. eigenvalues --    1.55962   1.56567   1.56733   1.57329   1.57548
 Alpha virt. eigenvalues --    1.57728   1.58299   1.58873   1.59730   1.60000
 Alpha virt. eigenvalues --    1.60292   1.60596   1.60807   1.61505   1.62149
 Alpha virt. eigenvalues --    1.62582   1.63049   1.63706   1.64104   1.64466
 Alpha virt. eigenvalues --    1.64928   1.65117   1.65999   1.66156   1.67040
 Alpha virt. eigenvalues --    1.67509   1.68474   1.69131   1.69252   1.69561
 Alpha virt. eigenvalues --    1.71091   1.71401   1.71971   1.72657   1.73141
 Alpha virt. eigenvalues --    1.73505   1.74070   1.75064   1.75773   1.76476
 Alpha virt. eigenvalues --    1.76810   1.78143   1.78239   1.79047   1.80330
 Alpha virt. eigenvalues --    1.81018   1.81451   1.82450   1.84825   1.85065
 Alpha virt. eigenvalues --    1.86402   1.86832   1.87279   1.88020   1.88459
 Alpha virt. eigenvalues --    1.89718   1.90835   1.91575   1.93328   1.94114
[...]
 --------------------------------------------------------


 ---------------------------------------------------------------------------------
              Anisotropic Spin Dipole Couplings in Principal Axis System
 ---------------------------------------------------------------------------------

       Atom             a.u.   MegaHertz   Gauss  10(-4) cm-1        Axes

              Baa    -0.0017    -0.881    -0.314    -0.294  0.6540 -0.5981 -0.4633
     1 H(1)   Bbb    -0.0015    -0.801    -0.286    -0.267  0.3789 -0.2711  0.8848
              Bcc     0.0032     1.682     0.600     0.561  0.6548  0.7542 -0.0493
 
              Baa    -0.0027    -0.363    -0.130    -0.121 -0.6657  0.6859 -0.2938
     2 C(13)  Bbb    -0.0019    -0.258    -0.092    -0.086 -0.3929  0.0125  0.9195
              Bcc     0.0046     0.621     0.222     0.207  0.6344  0.7276  0.2612
 
              Baa    -0.0014    -0.722    -0.258    -0.241 -0.6528  0.7528  0.0848
     3 H(1)   Bbb    -0.0013    -0.682    -0.243    -0.228 -0.1717 -0.2561  0.9513
              Bcc     0.0026     1.405     0.501     0.469  0.7378  0.6064  0.2964
 
              Baa    -0.0028    -1.475    -0.526    -0.492  0.8495 -0.5145  0.1165
     4 H(1)   Bbb    -0.0023    -1.249    -0.445    -0.416 -0.2358 -0.1728  0.9563
              Bcc     0.0051     2.723     0.972     0.908  0.4719  0.8399  0.2681
 
              Baa    -0.0177    -9.467    -3.378    -3.158 -0.0641  0.6729  0.7370
     5 H(1)   Bbb    -0.0148    -7.893    -2.816    -2.633  0.3355  0.7101 -0.6191
              Bcc     0.0325    17.359     6.194     5.790  0.9399 -0.2075  0.2713
 
              Baa    -0.0126     0.912     0.325     0.304  0.8994  0.2687  0.3449
     6 O(17)  Bbb     0.0027    -0.199    -0.071    -0.066 -0.2246 -0.3927  0.8918
              Bcc     0.0099    -0.713    -0.254    -0.238 -0.3750  0.8795  0.2929
 
              Baa    -0.0011    -0.607    -0.216    -0.202  0.1794  0.8870 -0.4255
     7 H(1)   Bbb    -0.0009    -0.474    -0.169    -0.158  0.3418  0.3494  0.8724
              Bcc     0.0020     1.081     0.386     0.361  0.9225 -0.3019 -0.2405
 
              Baa    -1.5852   114.701    40.928    38.260  0.0084  0.9997 -0.0244
     8 O(17)  Bbb    -1.5356   111.112    39.648    37.063 -0.1593  0.0254  0.9869
              Bcc     3.1207  -225.813   -80.576   -75.323  0.9872 -0.0044  0.1595
 
              Baa    -0.0110    -1.476    -0.527    -0.492 -0.4070  0.8876  0.2155
     9 C(13)  Bbb    -0.0018    -0.238    -0.085    -0.079 -0.6005 -0.4378  0.6691
              Bcc     0.0128     1.714     0.611     0.572  0.6883  0.1429  0.7112
 
              Baa    -0.0037    -1.998    -0.713    -0.666  0.0924  0.9084 -0.4077
    10 H(1)   Bbb    -0.0019    -1.026    -0.366    -0.342 -0.5154  0.3940  0.7610
              Bcc     0.0057     3.024     1.079     1.009  0.8519  0.1399  0.5046
 
              Baa    -0.0031    -1.648    -0.588    -0.550 -0.1364  0.9788  0.1531
    11 H(1)   Bbb    -0.0022    -1.192    -0.425    -0.398  0.0477 -0.1479  0.9879
              Bcc     0.0053     2.840     1.013     0.947  0.9895  0.1420 -0.0265
 
              Baa    -0.0157    -2.105    -0.751    -0.702 -0.1102  0.6231  0.7743
    12 C(13)  Bbb    -0.0140    -1.881    -0.671    -0.627 -0.1161  0.7656 -0.6327
              Bcc     0.0297     3.985     1.422     1.329  0.9871  0.1597  0.0120
 
              Baa    -0.0018    -0.945    -0.337    -0.315  0.5097  0.8091 -0.2924
    13 H(1)   Bbb    -0.0014    -0.736    -0.263    -0.245  0.3998  0.0782  0.9133
              Bcc     0.0032     1.681     0.600     0.561  0.7618 -0.5824 -0.2836
 
              Baa    -0.0034    -1.836    -0.655    -0.612 -0.1737 -0.2846  0.9428
    14 H(1)   Bbb    -0.0018    -0.984    -0.351    -0.328  0.3450  0.8791  0.3289
              Bcc     0.0053     2.820     1.006     0.941  0.9224 -0.3824  0.0545
 
              Baa    -0.0132    -7.067    -2.522    -2.357 -0.4429  0.8592  0.2559
    15 H(1)   Bbb    -0.0104    -5.562    -1.985    -1.855  0.1909 -0.1885  0.9633
              Bcc     0.0237    12.629     4.506     4.213  0.8760  0.4756 -0.0805
 
              Baa    -0.0014    -0.190    -0.068    -0.064  0.2501  0.8854 -0.3917
    16 C(13)  Bbb    -0.0009    -0.117    -0.042    -0.039  0.4229  0.2640  0.8669
              Bcc     0.0023     0.307     0.110     0.103  0.8710 -0.3825 -0.3084
 
              Baa    -0.0008    -0.404    -0.144    -0.135  0.3266  0.8761 -0.3546
    17 H(1)   Bbb    -0.0006    -0.322    -0.115    -0.107  0.4969  0.1600  0.8529
              Bcc     0.0014     0.726     0.259     0.242  0.8040 -0.4548 -0.3831
 
              Baa    -0.0165    -8.779    -3.133    -2.928  0.5779  0.7838 -0.2274
    18 H(1)   Bbb    -0.0113    -6.054    -2.160    -2.020  0.0270  0.2602  0.9652
              Bcc     0.0278    14.833     5.293     4.948  0.8157 -0.5639  0.1292
 
              Baa    -0.0553     1.354     0.483     0.452  0.1311  0.9640 -0.2311
    19 Ru(99) Bbb     0.0085    -0.208    -0.074    -0.069  0.9320 -0.1994 -0.3028
              Bcc     0.0468    -1.146    -0.409    -0.382  0.3380  0.1757  0.9246
 
              Baa    -0.0134    -7.154    -2.553    -2.386 -0.0051 -0.0115  0.9999
    20 H(1)   Bbb    -0.0122    -6.527    -2.329    -2.177  0.8600 -0.5103 -0.0015
              Bcc     0.0256    13.682     4.882     4.564  0.5103  0.8599  0.0125
 
              Baa    -0.0360    -1.389    -0.496    -0.463  0.1368  0.9535 -0.2687
    21 N(14)  Bbb    -0.0230    -0.888    -0.317    -0.296  0.2163  0.2359  0.9474
              Bcc     0.0591     2.278     0.813     0.760  0.9667 -0.1877 -0.1740
 
              Baa    -0.0155    -2.074    -0.740    -0.692  0.5920  0.7358 -0.3289
    22 C(13)  Bbb    -0.0055    -0.741    -0.264    -0.247 -0.5467  0.6664  0.5070
              Bcc     0.0210     2.815     1.005     0.939  0.5922 -0.1204  0.7967
 
              Baa    -0.0060    -0.803    -0.287    -0.268 -0.3384  0.8763 -0.3429
    23 C(13)  Bbb    -0.0022    -0.297    -0.106    -0.099 -0.2516  0.2668  0.9303
              Bcc     0.0082     1.100     0.392     0.367  0.9067  0.4011  0.1302
 
              Baa    -0.0028    -1.472    -0.525    -0.491  0.7130 -0.7011  0.0026
    24 H(1)   Bbb    -0.0023    -1.240    -0.442    -0.414 -0.1951 -0.1948  0.9612
              Bcc     0.0051     2.712     0.968     0.905  0.6735  0.6859  0.2757
 
              Baa    -0.0007    -0.385    -0.137    -0.128 -0.1745  0.9778 -0.1161
    25 H(1)   Bbb    -0.0006    -0.331    -0.118    -0.110  0.4335  0.1821  0.8826
              Bcc     0.0013     0.716     0.255     0.239  0.8841  0.1037 -0.4557
 
              Baa    -0.0075    -1.013    -0.362    -0.338  0.0461  0.0232  0.9987
    26 C(13)  Bbb    -0.0065    -0.876    -0.313    -0.292 -0.6008  0.7993  0.0092
              Bcc     0.0141     1.889     0.674     0.630  0.7980  0.6005 -0.0507
 
              Baa    -0.0015    -0.207    -0.074    -0.069  0.0352  0.9986 -0.0401
    27 C(13)  Bbb    -0.0007    -0.089    -0.032    -0.030  0.5216  0.0159  0.8530
              Bcc     0.0022     0.297     0.106     0.099  0.8524 -0.0509 -0.5203
 
              Baa    -0.0106    -2.292    -0.818    -0.765  0.4047  0.3505  0.8446
    28 P(31)  Bbb    -0.0093    -2.001    -0.714    -0.668 -0.3101  0.9215 -0.2338
              Bcc     0.0199     4.294     1.532     1.432  0.8603  0.1673 -0.4816
 
              Baa    -0.0036    -1.937    -0.691    -0.646  0.4887  0.7755 -0.3997
    29 H(1)   Bbb    -0.0022    -1.194    -0.426    -0.398  0.0442  0.4356  0.8991
              Bcc     0.0059     3.131     1.117     1.044  0.8713 -0.4570  0.1786
 
              Baa    -0.0008    -0.101    -0.036    -0.034 -0.0597  0.9889 -0.1360
    30 C(13)  Bbb    -0.0006    -0.078    -0.028    -0.026  0.5655  0.1457  0.8118
              Bcc     0.0013     0.179     0.064     0.060  0.8226 -0.0284 -0.5679
 
              Baa    -0.0027    -1.437    -0.513    -0.479 -0.2488  0.9414 -0.2278
    31 H(1)   Bbb    -0.0013    -0.708    -0.253    -0.236 -0.6682  0.0034  0.7440
              Bcc     0.0040     2.145     0.765     0.715  0.7011  0.3373  0.6282
 
              Baa    -0.0011    -0.565    -0.202    -0.189 -0.1344  0.9864 -0.0950
    32 H(1)   Bbb    -0.0010    -0.513    -0.183    -0.171 -0.3483  0.0428  0.9364
              Bcc     0.0020     1.078     0.385     0.360  0.9277  0.1590  0.3378
 
              Baa    -0.0005    -0.284    -0.101    -0.095 -0.0299  0.9797 -0.1985
    33 H(1)   Bbb    -0.0004    -0.230    -0.082    -0.077  0.5656  0.1803  0.8048
              Bcc     0.0010     0.514     0.184     0.172  0.8242 -0.0882 -0.5594
 
              Baa    -0.0025    -0.337    -0.120    -0.112  0.1599  0.9495 -0.2700
    34 C(13)  Bbb    -0.0023    -0.307    -0.110    -0.102 -0.5067  0.3137  0.8030
              Bcc     0.0048     0.644     0.230     0.215  0.8472  0.0084  0.5313
 
              Baa    -0.0011    -0.604    -0.215    -0.201 -0.3672  0.6621  0.6533
    35 H(1)   Bbb    -0.0011    -0.577    -0.206    -0.193  0.1982 -0.6306  0.7504
              Bcc     0.0022     1.181     0.421     0.394  0.9088  0.4050  0.1003
 
              Baa    -0.0307    -4.116    -1.469    -1.373  0.0938  0.9523 -0.2904
    36 C(13)  Bbb    -0.0001    -0.020    -0.007    -0.007  0.1391  0.2762  0.9510
              Bcc     0.0308     4.136     1.476     1.380  0.9858 -0.1296 -0.1065
 
              Baa    -0.0025    -0.330    -0.118    -0.110  0.1055  0.2713  0.9567
    37 C(13)  Bbb    -0.0023    -0.304    -0.109    -0.102 -0.3588  0.9076 -0.2178
              Bcc     0.0047     0.635     0.226     0.212  0.9274  0.3203 -0.1931
 
              Baa    -0.0019    -1.035    -0.369    -0.345  0.5833  0.7856 -0.2063
    38 H(1)   Bbb    -0.0013    -0.671    -0.239    -0.224  0.6005 -0.2460  0.7608
              Bcc     0.0032     1.706     0.609     0.569 -0.5469  0.5677  0.6153
 
              Baa    -0.0015    -0.197    -0.070    -0.066 -0.0077  0.9293 -0.3692
    39 C(13)  Bbb    -0.0012    -0.164    -0.058    -0.055  0.7305  0.2574  0.6325
              Bcc     0.0027     0.361     0.129     0.120  0.6828 -0.2648 -0.6809
 
              Baa    -0.0011    -0.563    -0.201    -0.188 -0.0341  0.9718  0.2334
    40 H(1)   Bbb    -0.0010    -0.547    -0.195    -0.183  0.1805 -0.2237  0.9578
              Bcc     0.0021     1.111     0.396     0.371  0.9830  0.0748 -0.1678
 
              Baa    -0.0008    -0.406    -0.145    -0.135  0.3078  0.9244 -0.2254
    41 H(1)   Bbb    -0.0006    -0.326    -0.116    -0.109  0.6911 -0.0544  0.7207
              Bcc     0.0014     0.731     0.261     0.244 -0.6540  0.3776  0.6555
 
              Baa    -0.0062    -0.833    -0.297    -0.278  0.3866  0.5386  0.7486
    42 C(13)  Bbb    -0.0014    -0.193    -0.069    -0.064  0.8623  0.0769 -0.5006
              Bcc     0.0076     1.026     0.366     0.342 -0.3272  0.8390 -0.4347
 
              Baa    -0.0062    -0.239    -0.085    -0.080  0.8948 -0.3559 -0.2695
    43 N(14)  Bbb    -0.0021    -0.082    -0.029    -0.027  0.4366  0.8236  0.3619
              Bcc     0.0083     0.321     0.115     0.107  0.0931 -0.4415  0.8924
 
              Baa    -0.0014    -0.186    -0.067    -0.062 -0.3701  0.7516  0.5460
    44 C(13)  Bbb    -0.0013    -0.180    -0.064    -0.060  0.3921  0.6592 -0.6416
              Bcc     0.0027     0.366     0.131     0.122  0.8422  0.0233  0.5387
 
              Baa    -0.0026    -1.404    -0.501    -0.468 -0.5177  0.5347  0.6679
    45 H(1)   Bbb    -0.0021    -1.127    -0.402    -0.376  0.6493 -0.2627  0.7137
              Bcc     0.0047     2.531     0.903     0.844  0.5571  0.8031 -0.2112
 
              Baa    -0.0028    -1.479    -0.528    -0.493  0.4282  0.8969 -0.1109
    46 H(1)   Bbb    -0.0014    -0.771    -0.275    -0.257 -0.6366  0.3864  0.6674
              Bcc     0.0042     2.250     0.803     0.750  0.6414 -0.2152  0.7364
 
              Baa    -0.0007    -0.394    -0.141    -0.131 -0.3605  0.9093 -0.2080
    47 H(1)   Bbb    -0.0006    -0.311    -0.111    -0.104  0.5609  0.3895  0.7305
              Bcc     0.0013     0.706     0.252     0.235  0.7453  0.1467 -0.6504
 
              Baa    -0.0011    -0.589    -0.210    -0.196  0.3651  0.8730 -0.3234
    48 H(1)   Bbb    -0.0010    -0.526    -0.188    -0.175 -0.2815  0.4347  0.8555
              Bcc     0.0021     1.115     0.398     0.372  0.8874 -0.2213  0.4044
 
              Baa    -0.0021    -0.282    -0.101    -0.094  0.8548 -0.3621  0.3718
    49 C(13)  Bbb    -0.0017    -0.228    -0.081    -0.076  0.0424  0.7627  0.6453
              Bcc     0.0038     0.510     0.182     0.170 -0.5172 -0.5359  0.6673
 
              Baa    -0.0008    -0.408    -0.146    -0.136  0.1229  0.9741 -0.1896
    50 H(1)   Bbb    -0.0006    -0.328    -0.117    -0.109 -0.5727  0.2257  0.7881
              Bcc     0.0014     0.736     0.263     0.245  0.8105  0.0118  0.5856
 
              Baa    -0.0011    -0.574    -0.205    -0.191 -0.3226  0.8583  0.3990
    51 H(1)   Bbb    -0.0009    -0.496    -0.177    -0.165  0.4272 -0.2442  0.8706
              Bcc     0.0020     1.070     0.382     0.357  0.8447  0.4513 -0.2879
 
              Baa    -0.0042    -0.557    -0.199    -0.186  0.4539  0.4155  0.7882
    52 C(13)  Bbb    -0.0013    -0.181    -0.065    -0.060  0.8534 -0.4570 -0.2506
              Bcc     0.0055     0.738     0.263     0.246  0.2561  0.7865 -0.5620
 
              Baa    -0.0032    -0.423    -0.151    -0.141  0.8804  0.1557 -0.4480
    53 C(13)  Bbb     0.0004     0.049     0.017     0.016 -0.0606  0.9737  0.2195
              Bcc     0.0028     0.375     0.134     0.125  0.4704 -0.1661  0.8667
 
              Baa    -0.0015    -0.825    -0.294    -0.275 -0.1322  0.9561 -0.2614
    54 H(1)   Bbb    -0.0009    -0.497    -0.177    -0.166  0.7924  0.2604  0.5516
              Bcc     0.0025     1.322     0.472     0.441 -0.5954  0.1342  0.7921
 
              Baa    -0.0012    -0.616    -0.220    -0.205  0.8325  0.5526 -0.0397
    55 H(1)   Bbb    -0.0010    -0.521    -0.186    -0.174 -0.1301  0.2647  0.9555
              Bcc     0.0021     1.137     0.406     0.379 -0.5385  0.7903 -0.2923
 
              Baa    -0.0017    -0.925    -0.330    -0.309  0.7320 -0.6747  0.0944
    56 H(1)   Bbb    -0.0012    -0.628    -0.224    -0.209  0.4889  0.6167  0.6170
              Bcc     0.0029     1.553     0.554     0.518 -0.4745 -0.4055  0.7813
 
              Baa    -0.0013    -0.696    -0.248    -0.232  0.7379 -0.6631  0.1256
    57 H(1)   Bbb    -0.0011    -0.570    -0.203    -0.190  0.3171  0.5049  0.8028
              Bcc     0.0024     1.266     0.452     0.422  0.5958  0.5526 -0.5828
 
              Baa    -0.0028    -0.379    -0.135    -0.126  0.9138 -0.3255 -0.2429
    58 C(13)  Bbb    -0.0000    -0.003    -0.001    -0.001  0.3410  0.9398  0.0232
              Bcc     0.0028     0.382     0.136     0.127  0.2207 -0.1040  0.9698
 
              Baa    -0.0035    -0.473    -0.169    -0.158  0.3662  0.3628  0.8569
    59 C(13)  Bbb     0.0004     0.058     0.021     0.019  0.9284 -0.0809 -0.3625
              Bcc     0.0031     0.415     0.148     0.138 -0.0622  0.9283 -0.3665
 
              Baa    -0.0009    -0.478    -0.171    -0.160  0.7782 -0.5306 -0.3360
    60 H(1)   Bbb    -0.0006    -0.338    -0.121    -0.113  0.5607  0.3458  0.7524
              Bcc     0.0015     0.816     0.291     0.272  0.2831  0.7739 -0.5666
 
              Baa    -0.0006    -0.332    -0.118    -0.111  0.3272  0.4635  0.8235
    61 H(1)   Bbb    -0.0004    -0.234    -0.083    -0.078  0.9366 -0.0434 -0.3477
              Bcc     0.0011     0.565     0.202     0.189 -0.1254  0.8851 -0.4483
 
              Baa    -0.0737     5.336     1.904     1.780  0.0582  0.9373 -0.3436
    62 O(17)  Bbb    -0.0616     4.457     1.590     1.487  0.1850  0.3281  0.9263
              Bcc     0.1353    -9.793    -3.494    -3.267  0.9810 -0.1175 -0.1543
 
              Baa    -0.0035    -1.867    -0.666    -0.623  0.9514  0.2874 -0.1107
    63 H(1)   Bbb    -0.0022    -1.171    -0.418    -0.391  0.2028 -0.3140  0.9275
              Bcc     0.0057     3.038     1.084     1.013 -0.2318  0.9049  0.3570
 

 ---------------------------------------------------------------------------------

 1\1\GINC-NODE284\SP\UPBE1PBE\GenECP\C20H36N2O3P1Ru1(2)\JS1212\28-Aug-2
 020\0\\# genecp pbe1pbe EmpiricalDispersion=GD3BJ scrf=(SMD,solvent=wa
 ter) geom=allcheck\\Title Card Required\\0,2\H,0,-3.6905370104,-3.2718
 121937,1.8378939994\C,0,-3.3750603622,-2.6854541367,0.9618846844\H,0,-
 4.1113387957,-2.8691398049,0.1634869095\H,0,-2.3746109988,-3.033876274
 6,0.6565966198\H,0,1.4247838842,-0.6991579822,2.7360524122\O,0,-0.3111
 875734,-2.5739048286,0.7056376432\H,0,4.291650212,-1.7399433226,0.7433
 414845\O,0,-0.5290884211,-0.1466908447,2.0086686983\C,0,-3.286645055,-
 1.2291937711,1.3636540336\H,0,2.8035005633,0.0863967164,3.5642871307\H
 ,0,-4.274928125,-0.8341722834,1.6735422082\C,0,2.469677188,-0.37725750
 96,2.6204087601\H,0,2.805032851,-2.7019124416,0.5425041296\H,0,3.10478
 36814,-1.2537143263,2.4394891715\H,0,-2.5916800383,-1.1179422106,2.209
 608011\C,0,3.6133707732,-2.1845477548,0.0031756433\H,0,4.1866877437,-2
 .9404108573,-0.5587684928\H,0,-2.3442066369,0.9994248313,1.8101545235\
 Ru,0,-0.41404302,-0.6093825467,0.1075359764\H,0,0.6843492306,1.5905802
 524,2.0610910937\N,0,-2.7243793087,-0.3571728703,0.3070679105\C,0,-2.7
 561181144,1.0347856027,0.7858412475\C,0,2.5734204257,0.6673985977,1.50
 35791596\H,0,2.1253648269,2.2725304057,2.8586166721\H,0,4.7806497876,0
 .2266488535,-0.9097432633\C,0,1.7312962676,1.885503926,1.9041121239\C,
 0,3.0563050066,-1.1514469836,-0.9795605487\P,0,1.7907048977,-0.0607076
 035,-0.0685787618\H,0,-3.780793841,1.4411316161,0.8306626656\C,0,4.189
 7841787,-0.3521368809,-1.6279532531\H,0,-3.2075426933,-1.4945356447,-1
 .3689820507\H,0,-5.455570938,-0.9493970981,-0.3428232244\H,0,4.8750659
 516,-1.0557198651,-2.1298116335\C,0,-3.4176240391,-0.486030416,-0.9902
 782315\H,0,4.336736522,1.6253379544,2.2618596968\C,0,-0.5704193252,-1.
 0986499252,-1.6911688577\C,0,4.0209146233,1.1249557655,1.3311708479\H,
 0,1.5506960494,-2.5741163322,-1.6879240889\C,0,2.326695817,-1.90917475
 8,-2.0890535612\H,0,4.7166441883,0.2920994008,1.1615940841\H,0,3.06035
 55765,-2.5292436982,-2.6301298277\C,0,-1.856281482,1.935364931,-0.0054
 941633\N,0,-0.6718093197,1.3877288534,-0.3429114705\C,0,-4.9188937826,
 -0.2373850401,-0.9864212744\H,0,1.7953862868,2.7037168585,1.1702746451
 \H,0,-2.9260195994,0.2128660184,-1.6847885851\H,0,3.8149060543,0.33555
 44782,-2.4010114787\H,0,-5.1827773848,0.7808598541,-0.6630532963\C,0,1
 .5870046894,1.4121293425,-1.2174407122\H,0,-5.3031142377,-0.3619123948
 ,-2.0099828958\H,0,4.1410594861,1.85497739,0.5151764443\C,0,0.29450195
 53,2.1208632007,-0.9339160368\C,0,-2.1372767347,3.263338482,-0.3040780
 224\H,0,1.8558095528,-1.2415668482,-2.8243634354\H,0,-3.1062404601,3.6
 857758984,-0.036004528\H,0,1.5391875809,0.9753408009,-2.2301458637\H,0
 ,2.4337011065,2.1146010147,-1.2038502189\C,0,0.0696657727,3.4615280464
 ,-1.2386096679\C,0,-1.1607305597,4.034232328,-0.9303609289\H,0,0.85821
 10662,4.0464527196,-1.7131678465\H,0,-1.3554184276,5.080575409,-1.1717
 472413\O,0,-0.7719678527,-1.3864457527,-2.7975280831\H,0,0.28790034,-3
 .0674143473,0.1340329141\\Version=ES64L-G16RevA.03\State=2-A\HF=-1554.
 3405153\S2=0.758283\S2-1=0.\S2A=0.750046\RMSD=2.138e-09\Dipole=0.74222
 07,4.3027534,-2.8406247\Quadrupole=22.2604637,-1.9091792,-20.3512845,-
 7.0820597,-2.3390946,1.0014364\PG=C01 [X(C20H36N2O3P1Ru1)]\\@


 HE WHO LOVES TO READ, AND KNOWS HOW TO REFLECT,
 HAS LAID BY A PERPETUAL FEAST FOR HIS OLD AGE.
 -- UNCLE ESEK, "SCRIBNER'S MONTHLY", SEPT. 1880
 Job cpu time:       1 days 21 hours 11 minutes  4.6 seconds.
 Elapsed time:       0 days  2 hours 15 minutes 48.1 seconds.
 File lengths (MBytes):  RWF=   1871 Int=      0 D2E=      0 Chk=    146 Scr=      1
 Normal termination of Gaussian 16 at Fri Aug 28 20:37:50 2020.
