63
	Energy: -975165.8829902
H         -3.59713       -3.37011        1.85732
C         -3.30686       -2.75815        0.99015
H         -4.05420       -2.93520        0.20058
H         -2.30651       -3.08263        0.65924
H          1.49110       -0.73473        2.72708
O         -0.25026       -2.58975        0.68320
H          4.33842       -1.68060        0.66041
O         -0.48413       -0.19782        2.04727
C         -3.23487       -1.31048        1.42488
H          2.87147        0.05390        3.54960
H         -4.22373       -0.93932        1.76129
C          2.52841       -0.39289        2.60092
H          2.86422       -2.66213        0.46270
H          3.17429       -1.25419        2.38812
H         -2.52682       -1.20764        2.26099
C          3.65433       -2.11887       -0.07818
H          4.22969       -2.85168       -0.66789
H         -2.32081        0.92236        1.90782
Ru        -0.39555       -0.61368        0.13394
H          0.70178        1.55765        2.11987
N         -2.70573       -0.40463        0.37971
C         -2.75145        0.97496        0.89198
C          2.59529        0.67933        1.50764
H          2.14556        2.24447        2.90814
H          4.76596        0.33218       -0.95365
C          1.74084        1.87352        1.95171
C          3.06317       -1.07233       -1.02616
P          1.79654       -0.02448       -0.06751
H         -3.78161        1.36308        0.96435
C          4.17182       -0.23927       -1.67502
H         -3.20025       -1.51011       -1.31426
H         -5.43814       -1.02666       -0.23633
H          4.85933       -0.91938       -2.20537
C         -3.41984       -0.51442       -0.90804
H          4.35612        1.64830        2.25763
C         -0.57605       -1.06302       -1.67290
C          4.03188        1.16478        1.32094
H          1.56839       -2.50274       -1.74182
C          2.32624       -1.81575       -2.14048
H          4.73787        0.34781        1.11946
H          3.06007       -2.41065       -2.70890
C         -1.88057        1.90873        0.10674
N         -0.69360        1.38892       -0.26425
C         -4.92463       -0.29089       -0.87206
H          1.77858        2.70973        1.23656
H         -2.95208        0.20869       -1.59418
H          3.77213        0.46010       -2.42482
H         -5.19915        0.71495       -0.51997
C          1.54856        1.47139       -1.17724
H         -5.32498       -0.39766       -1.89143
H          4.12562        1.91569        0.52060
C          0.25002        2.15170       -0.85440
C         -2.18830        3.23851       -0.15518
H          1.83157       -1.13894       -2.85135
H         -3.15904        3.63838        0.13975
H          1.48976        1.05781       -2.19907
H          2.38389        2.18731       -1.16170
C         -0.00188        3.49525       -1.12311
C         -1.23569        4.04003       -0.77988
H          0.76850        4.10418       -1.59729
H         -1.45156        5.08839       -0.99284
O         -0.79262       -1.32801       -2.78212
H          0.34645       -3.05966        0.08963
