 Entering Gaussian System, Link 0=g16
 Initial command:
 /cluster/chemistry/gaussian/g16/l1.exe "/scratch/js1212.758339/scratch/Gau-11435.inp" -scrdir="/scratch/js1212.758339/scratch/"
 Entering Link 1 = /cluster/chemistry/gaussian/g16/l1.exe PID=     11436.
  
 Copyright (c) 1988,1990,1992,1993,1995,1998,2003,2009,2016,
            Gaussian, Inc.  All Rights Reserved.
  
 This is part of the Gaussian(R) 16 program.  It is based on
 the Gaussian(R) 09 system (copyright 2009, Gaussian, Inc.),
 the Gaussian(R) 03 system (copyright 2003, Gaussian, Inc.),
 the Gaussian(R) 98 system (copyright 1998, Gaussian, Inc.),
 the Gaussian(R) 94 system (copyright 1995, Gaussian, Inc.),
 the Gaussian 92(TM) system (copyright 1992, Gaussian, Inc.),
 the Gaussian 90(TM) system (copyright 1990, Gaussian, Inc.),
 the Gaussian 88(TM) system (copyright 1988, Gaussian, Inc.),
 the Gaussian 86(TM) system (copyright 1986, Carnegie Mellon
 University), and the Gaussian 82(TM) system (copyright 1983,
 Carnegie Mellon University). Gaussian is a federally registered
 trademark of Gaussian, Inc.
  
 This software contains proprietary and confidential information,
 including trade secrets, belonging to Gaussian, Inc.
  
 This software is provided under written license and may be
 used, copied, transmitted, or stored only in accord with that
 written license.
  
 The following legend is applicable only to US Government
 contracts under FAR:
  
                    RESTRICTED RIGHTS LEGEND
  
 Use, reproduction and disclosure by the US Government is
 subject to restrictions as set forth in subparagraphs (a)
 and (c) of the Commercial Computer Software - Restricted
 Rights clause in FAR 52.227-19.
  
 Gaussian, Inc.
 340 Quinnipiac St., Bldg. 40, Wallingford CT 06492
  
  
 ---------------------------------------------------------------
 Warning -- This program may not be used in any manner that
 competes with the business of Gaussian, Inc. or will provide
 assistance to any competitor of Gaussian, Inc.  The licensee
 of this program is prohibited from giving any competitor of
 Gaussian, Inc. access to this program.  By using this program,
 the user acknowledges that Gaussian, Inc. is engaged in the
 business of creating and licensing software in the field of
 computational chemistry and represents and warrants to the
 licensee that it is not a competitor of Gaussian, Inc. and that
 it will not use this program in any manner prohibited above.
 ---------------------------------------------------------------
  

 Cite this work as:
 Gaussian 16, Revision A.03,
 M. J. Frisch, G. W. Trucks, H. B. Schlegel, G. E. Scuseria, 
 M. A. Robb, J. R. Cheeseman, G. Scalmani, V. Barone, 
 G. A. Petersson, H. Nakatsuji, X. Li, M. Caricato, A. V. Marenich, 
 J. Bloino, B. G. Janesko, R. Gomperts, B. Mennucci, H. P. Hratchian, 
 J. V. Ortiz, A. F. Izmaylov, J. L. Sonnenberg, D. Williams-Young, 
 F. Ding, F. Lipparini, F. Egidi, J. Goings, B. Peng, A. Petrone, 
 T. Henderson, D. Ranasinghe, V. G. Zakrzewski, J. Gao, N. Rega, 
 G. Zheng, W. Liang, M. Hada, M. Ehara, K. Toyota, R. Fukuda, 
 J. Hasegawa, M. Ishida, T. Nakajima, Y. Honda, O. Kitao, H. Nakai, 
 T. Vreven, K. Throssell, J. A. Montgomery, Jr., J. E. Peralta, 
 F. Ogliaro, M. J. Bearpark, J. J. Heyd, E. N. Brothers, K. N. Kudin, 
 V. N. Staroverov, T. A. Keith, R. Kobayashi, J. Normand, 
 K. Raghavachari, A. P. Rendell, J. C. Burant, S. S. Iyengar, 
 J. Tomasi, M. Cossi, J. M. Millam, M. Klene, C. Adamo, R. Cammi, 
 J. W. Ochterski, R. L. Martin, K. Morokuma, O. Farkas, 
 J. B. Foresman, and D. J. Fox, Gaussian, Inc., Wallingford CT, 2016.
 
 ******************************************
 Gaussian 16:  ES64L-G16RevA.03 25-Dec-2016
                28-Jul-2020 
 ******************************************
 %rwf=/scratch/js1212.758339/G-Cis-Mono-D-0-GPOF.rwf
 %nosave
 %nprocshared=20
 Will use up to   20 processors via shared memory.
 %mem=3000MB
 %chk=/scratch/js1212.758339/G-Cis-Mono-D-0-GPOF.chk
 ---------------------------------------------------
 # opt freq genecp pbe1pbe EmpiricalDispersion=GD3BJ
 ---------------------------------------------------
 1/18=20,19=15,26=3,38=1/1,3;
 2/9=110,12=2,17=6,18=5,40=1/2;
 3/5=7,11=2,16=1,17=8,25=1,30=1,71=1,74=-13,124=41/1,2,3;
 4//1;
 5/5=2,38=5/2;
 6/7=2,8=2,9=2,10=2,28=1/1;
 7//1,2,3,16;
 1/18=20,19=15,26=3/3(2);
 2/9=110/2;
 99//99;
 2/9=110/2;
 3/5=7,6=1,11=2,16=1,17=8,25=1,30=1,71=1,74=-13,82=7,124=41/1,2,3;
 4/5=5,16=3,69=1/1;
 5/5=2,38=5/2;
 7//1,2,3,16;
 1/18=20,19=15,26=3/3(-5);
 2/9=110/2;
 6/7=2,8=2,9=2,10=2,19=2,28=1/1;
 99/9=1/99;
 -------------------
 Title Card Required
 -------------------
 Symbolic Z-matrix:
 Charge =  0 Multiplicity = 2
 H                    -3.52147  -3.3318    1.91476 
 C                    -3.21273  -2.73924   1.04103 
 H                    -3.90599  -2.97992   0.22015 
 H                    -2.19116  -3.04829   0.76397 
 H                     1.93826  -0.69328   2.69178 
 O                    -0.16459  -2.37754   0.90223 
 H                     2.96531  -2.6073    0.75502 
 O                    -0.51143  -0.09534   2.16923 
 C                    -3.22818  -1.27357   1.41611 
 H                     3.26996   0.2976    3.34665 
 H                    -4.25213  -0.93762   1.66951 
 C                     2.88237  -0.19169   2.43768 
 H                     1.61419  -2.86521  -0.35016 
 H                     3.61834  -0.94831   2.12774 
 H                    -2.58714  -1.09775   2.29149 
 C                     2.6813   -2.59912  -0.30746 
 H                     3.27596  -3.37305  -0.82088 
 H                    -2.30473   0.98017   1.86228 
 Ru                   -0.40986  -0.62255   0.17304 
 H                     0.70035   1.43941   2.1567 
 N                    -2.67307  -0.38667   0.36774 
 C                    -2.74464   1.00794   0.85003 
 C                     2.64564   0.86733   1.36016 
 H                     2.10188   2.34881   2.81099 
 H                     4.8126   -0.98398   0.21233 
 C                     1.66058   1.91369   1.89823 
 C                     2.97237  -1.24134  -0.95698 
 P                     1.80265   0.00325  -0.10829 
 H                    -3.78248   1.37546   0.90262 
 C                     4.46192  -0.92727  -0.82616 
 H                    -3.1281   -1.53856  -1.31205 
 H                    -5.39232  -1.0493   -0.30824 
 H                     5.02152  -1.68584  -1.3984 
 C                    -3.35946  -0.53418  -0.9359 
 H                     4.21857   2.22703   1.87501 
 C                    -0.54036  -1.26267  -1.54368 
 C                     3.94788   1.59477   1.01331 
 H                     1.59523  -1.50593  -2.66402 
 C                     2.65159  -1.30784  -2.45228 
 H                     4.79263   0.92558   0.82327 
 H                     3.22919  -2.13934  -2.88826 
 C                    -1.88127   1.92541   0.03882 
 N                    -0.70686   1.38778  -0.33782 
 C                    -4.86498  -0.318    -0.93794 
 H                     1.51175   2.74169   1.18775 
 H                    -2.87726   0.17266  -1.62817 
 H                     4.72653   0.05722  -1.23858 
 H                    -5.15359   0.69064  -0.60641 
 C                     1.50175   1.40498  -1.31722 
 H                    -5.23715  -0.4403   -1.96609 
 H                     3.83783   2.26939   0.14977 
 C                     0.23022   2.12364  -0.96564 
 C                    -2.18126   3.25278  -0.24505 
 H                     2.95743  -0.39133  -2.98035 
 H                    -3.14183   3.67075   0.05806 
 H                     1.36662   0.92202  -2.29851 
 H                     2.3442    2.10582  -1.40654 
 C                    -0.0085    3.46423  -1.25873 
 C                    -1.22962   4.0301   -0.90145 
 H                     0.7578    4.05357  -1.76333 
 H                    -1.43685   5.07689  -1.13027 
 O                    -0.71029  -1.72257  -2.59914 
 H                    -0.16562  -3.04278   0.16989 
 

 GradGradGradGradGradGradGradGradGradGradGradGradGradGradGradGradGradGrad
 Berny optimization.
 Initialization pass.
                           ----------------------------
                           !    Initial Parameters    !
                           ! (Angstroms and Degrees)  !
 --------------------------                            --------------------------
 ! Name  Definition              Value          Derivative Info.                !
 --------------------------------------------------------------------------------
 ! R1    R(1,2)                  1.0999         estimate D2E/DX2                !
 ! R2    R(2,3)                  1.1011         estimate D2E/DX2                !
 ! R3    R(2,4)                  1.1027         estimate D2E/DX2                !
 ! R4    R(2,9)                  1.513          estimate D2E/DX2                !
 ! R5    R(5,12)                 1.0989         estimate D2E/DX2                !
 ! R6    R(6,19)                 1.9162         estimate D2E/DX2                !
 ! R7    R(6,63)                 0.9894         estimate D2E/DX2                !
 ! R8    R(7,16)                 1.0998         estimate D2E/DX2                !
 ! R9    R(8,19)                 2.0671         estimate D2E/DX2                !
 ! R10   R(9,11)                 1.107          estimate D2E/DX2                !
 ! R11   R(9,15)                 1.0992         estimate D2E/DX2                !
 ! R12   R(9,21)                 1.4812         estimate D2E/DX2                !
 ! R13   R(10,12)                1.1027         estimate D2E/DX2                !
 ! R14   R(12,14)                1.1001         estimate D2E/DX2                !
 ! R15   R(12,23)                1.5293         estimate D2E/DX2                !
 ! R16   R(13,16)                1.1006         estimate D2E/DX2                !
 ! R17   R(16,17)                1.1028         estimate D2E/DX2                !
 ! R18   R(16,27)                1.533          estimate D2E/DX2                !
 ! R19   R(18,22)                1.1041         estimate D2E/DX2                !
 ! R20   R(19,28)                2.3165         estimate D2E/DX2                !
 ! R21   R(19,36)                1.8368         estimate D2E/DX2                !
 ! R22   R(19,43)                2.0954         estimate D2E/DX2                !
 ! R23   R(20,26)                1.1017         estimate D2E/DX2                !
 ! R24   R(21,22)                1.4774         estimate D2E/DX2                !
 ! R25   R(21,34)                1.4807         estimate D2E/DX2                !
 ! R26   R(22,29)                1.1022         estimate D2E/DX2                !
 ! R27   R(22,42)                1.4984         estimate D2E/DX2                !
 ! R28   R(23,26)                1.5345         estimate D2E/DX2                !
 ! R29   R(23,28)                1.901          estimate D2E/DX2                !
 ! R30   R(23,37)                1.5314         estimate D2E/DX2                !
 ! R31   R(24,26)                1.1033         estimate D2E/DX2                !
 ! R32   R(25,30)                1.0976         estimate D2E/DX2                !
 ! R33   R(26,45)                1.1011         estimate D2E/DX2                !
 ! R34   R(27,28)                1.9072         estimate D2E/DX2                !
 ! R35   R(27,30)                1.5279         estimate D2E/DX2                !
 ! R36   R(27,39)                1.5308         estimate D2E/DX2                !
 ! R37   R(28,49)                1.8753         estimate D2E/DX2                !
 ! R38   R(30,33)                1.1027         estimate D2E/DX2                !
 ! R39   R(30,47)                1.0997         estimate D2E/DX2                !
 ! R40   R(31,34)                1.0972         estimate D2E/DX2                !
 ! R41   R(32,44)                1.0997         estimate D2E/DX2                !
 ! R42   R(34,44)                1.521          estimate D2E/DX2                !
 ! R43   R(34,46)                1.1006         estimate D2E/DX2                !
 ! R44   R(35,37)                1.1025         estimate D2E/DX2                !
 ! R45   R(36,62)                1.1638         estimate D2E/DX2                !
 ! R46   R(37,40)                1.0943         estimate D2E/DX2                !
 ! R47   R(37,51)                1.1013         estimate D2E/DX2                !
 ! R48   R(38,39)                1.0954         estimate D2E/DX2                !
 ! R49   R(39,41)                1.1023         estimate D2E/DX2                !
 ! R50   R(39,54)                1.1011         estimate D2E/DX2                !
 ! R51   R(42,43)                1.3454         estimate D2E/DX2                !
 ! R52   R(42,53)                1.3901         estimate D2E/DX2                !
 ! R53   R(43,52)                1.3468         estimate D2E/DX2                !
 ! R54   R(44,48)                1.1003         estimate D2E/DX2                !
 ! R55   R(44,50)                1.1003         estimate D2E/DX2                !
 ! R56   R(49,52)                1.5023         estimate D2E/DX2                !
 ! R57   R(49,56)                1.102          estimate D2E/DX2                !
 ! R58   R(49,57)                1.0995         estimate D2E/DX2                !
 ! R59   R(52,58)                1.3929         estimate D2E/DX2                !
 ! R60   R(53,55)                1.0905         estimate D2E/DX2                !
 ! R61   R(53,59)                1.3931         estimate D2E/DX2                !
 ! R62   R(58,59)                1.3925         estimate D2E/DX2                !
 ! R63   R(58,60)                1.0905         estimate D2E/DX2                !
 ! R64   R(59,61)                1.0914         estimate D2E/DX2                !
 ! A1    A(1,2,3)              107.3207         estimate D2E/DX2                !
 ! A2    A(1,2,4)              107.9776         estimate D2E/DX2                !
 ! A3    A(1,2,9)              108.7891         estimate D2E/DX2                !
 ! A4    A(3,2,4)              109.5558         estimate D2E/DX2                !
 ! A5    A(3,2,9)              112.9633         estimate D2E/DX2                !
 ! A6    A(4,2,9)              110.0757         estimate D2E/DX2                !
 ! A7    A(19,6,63)            109.5119         estimate D2E/DX2                !
 ! A8    A(2,9,11)             111.1104         estimate D2E/DX2                !
 ! A9    A(2,9,15)             110.2697         estimate D2E/DX2                !
 ! A10   A(2,9,21)             113.6262         estimate D2E/DX2                !
 ! A11   A(11,9,15)            107.9747         estimate D2E/DX2                !
 ! A12   A(11,9,21)            109.084          estimate D2E/DX2                !
 ! A13   A(15,9,21)            104.4388         estimate D2E/DX2                !
 ! A14   A(5,12,10)            108.2963         estimate D2E/DX2                !
 ! A15   A(5,12,14)            109.026          estimate D2E/DX2                !
 ! A16   A(5,12,23)            110.245          estimate D2E/DX2                !
 ! A17   A(10,12,14)           107.5949         estimate D2E/DX2                !
 ! A18   A(10,12,23)           109.145          estimate D2E/DX2                !
 ! A19   A(14,12,23)           112.4168         estimate D2E/DX2                !
 ! A20   A(7,16,13)            106.6219         estimate D2E/DX2                !
 ! A21   A(7,16,17)            107.7754         estimate D2E/DX2                !
 ! A22   A(7,16,27)            111.5221         estimate D2E/DX2                !
 ! A23   A(13,16,17)           109.5774         estimate D2E/DX2                !
 ! A24   A(13,16,27)           112.4438         estimate D2E/DX2                !
 ! A25   A(17,16,27)           108.7796         estimate D2E/DX2                !
 ! A26   A(6,19,8)              82.6689         estimate D2E/DX2                !
 ! A27   A(6,19,28)             99.8684         estimate D2E/DX2                !
 ! A28   A(6,19,36)             92.6123         estimate D2E/DX2                !
 ! A29   A(8,19,28)             95.4692         estimate D2E/DX2                !
 ! A30   A(8,19,43)             89.0706         estimate D2E/DX2                !
 ! A31   A(28,19,36)            92.7798         estimate D2E/DX2                !
 ! A32   A(28,19,43)            81.1749         estimate D2E/DX2                !
 ! A33   A(36,19,43)            95.5328         estimate D2E/DX2                !
 ! A34   A(9,21,22)            108.4226         estimate D2E/DX2                !
 ! A35   A(9,21,34)            112.9415         estimate D2E/DX2                !
 ! A36   A(22,21,34)           111.0391         estimate D2E/DX2                !
 ! A37   A(18,22,21)           104.8481         estimate D2E/DX2                !
 ! A38   A(18,22,29)           109.8652         estimate D2E/DX2                !
 ! A39   A(18,22,42)           106.3905         estimate D2E/DX2                !
 ! A40   A(21,22,29)           112.0821         estimate D2E/DX2                !
 ! A41   A(21,22,42)           111.9221         estimate D2E/DX2                !
 ! A42   A(29,22,42)           111.3582         estimate D2E/DX2                !
 ! A43   A(12,23,26)           108.9363         estimate D2E/DX2                !
 ! A44   A(12,23,28)           107.3473         estimate D2E/DX2                !
 ! A45   A(12,23,37)           110.9096         estimate D2E/DX2                !
 ! A46   A(26,23,28)           107.2264         estimate D2E/DX2                !
 ! A47   A(26,23,37)           107.5406         estimate D2E/DX2                !
 ! A48   A(28,23,37)           114.7113         estimate D2E/DX2                !
 ! A49   A(20,26,23)           110.3781         estimate D2E/DX2                !
 ! A50   A(20,26,24)           108.9237         estimate D2E/DX2                !
 ! A51   A(20,26,45)           110.933          estimate D2E/DX2                !
 ! A52   A(23,26,24)           107.5931         estimate D2E/DX2                !
 ! A53   A(23,26,45)           111.9168         estimate D2E/DX2                !
 ! A54   A(24,26,45)           106.9362         estimate D2E/DX2                !
 ! A55   A(16,27,28)           105.8421         estimate D2E/DX2                !
 ! A56   A(16,27,30)           109.3223         estimate D2E/DX2                !
 ! A57   A(16,27,39)           109.6093         estimate D2E/DX2                !
 ! A58   A(28,27,30)           115.1932         estimate D2E/DX2                !
 ! A59   A(28,27,39)           109.5423         estimate D2E/DX2                !
 ! A60   A(30,27,39)           107.2691         estimate D2E/DX2                !
 ! A61   A(19,28,23)           116.9068         estimate D2E/DX2                !
 ! A62   A(19,28,27)           117.6156         estimate D2E/DX2                !
 ! A63   A(19,28,49)            97.2944         estimate D2E/DX2                !
 ! A64   A(23,28,27)           111.6165         estimate D2E/DX2                !
 ! A65   A(23,28,49)           103.2602         estimate D2E/DX2                !
 ! A66   A(27,28,49)           107.4161         estimate D2E/DX2                !
 ! A67   A(25,30,27)           112.4499         estimate D2E/DX2                !
 ! A68   A(25,30,33)           107.0564         estimate D2E/DX2                !
 ! A69   A(25,30,47)           108.9184         estimate D2E/DX2                !
 ! A70   A(27,30,33)           107.9924         estimate D2E/DX2                !
 ! A71   A(27,30,47)           112.7363         estimate D2E/DX2                !
 ! A72   A(33,30,47)           107.4042         estimate D2E/DX2                !
 ! A73   A(21,34,31)           107.1751         estimate D2E/DX2                !
 ! A74   A(21,34,44)           116.4798         estimate D2E/DX2                !
 ! A75   A(21,34,46)           106.6607         estimate D2E/DX2                !
 ! A76   A(31,34,44)           109.7782         estimate D2E/DX2                !
 ! A77   A(31,34,46)           106.253          estimate D2E/DX2                !
 ! A78   A(44,34,46)           109.9708         estimate D2E/DX2                !
 ! A79   A(23,37,35)           107.7075         estimate D2E/DX2                !
 ! A80   A(23,37,40)           113.9081         estimate D2E/DX2                !
 ! A81   A(23,37,51)           112.5556         estimate D2E/DX2                !
 ! A82   A(35,37,40)           107.2706         estimate D2E/DX2                !
 ! A83   A(35,37,51)           106.6233         estimate D2E/DX2                !
 ! A84   A(40,37,51)           108.3942         estimate D2E/DX2                !
 ! A85   A(27,39,38)           113.5002         estimate D2E/DX2                !
 ! A86   A(27,39,41)           108.018          estimate D2E/DX2                !
 ! A87   A(27,39,54)           111.9695         estimate D2E/DX2                !
 ! A88   A(38,39,41)           107.0043         estimate D2E/DX2                !
 ! A89   A(38,39,54)           109.0064         estimate D2E/DX2                !
 ! A90   A(41,39,54)           107.0165         estimate D2E/DX2                !
 ! A91   A(22,42,43)           114.1947         estimate D2E/DX2                !
 ! A92   A(22,42,53)           124.8102         estimate D2E/DX2                !
 ! A93   A(43,42,53)           120.8481         estimate D2E/DX2                !
 ! A94   A(19,43,42)           116.0309         estimate D2E/DX2                !
 ! A95   A(19,43,52)           122.6323         estimate D2E/DX2                !
 ! A96   A(42,43,52)           121.3005         estimate D2E/DX2                !
 ! A97   A(32,44,34)           112.2943         estimate D2E/DX2                !
 ! A98   A(32,44,48)           108.1371         estimate D2E/DX2                !
 ! A99   A(32,44,50)           107.3947         estimate D2E/DX2                !
 ! A100  A(34,44,48)           112.9261         estimate D2E/DX2                !
 ! A101  A(34,44,50)           108.6797         estimate D2E/DX2                !
 ! A102  A(48,44,50)           107.1423         estimate D2E/DX2                !
 ! A103  A(28,49,52)           110.0295         estimate D2E/DX2                !
 ! A104  A(28,49,56)           105.4339         estimate D2E/DX2                !
 ! A105  A(28,49,57)           113.9459         estimate D2E/DX2                !
 ! A106  A(52,49,56)           108.3159         estimate D2E/DX2                !
 ! A107  A(52,49,57)           111.2605         estimate D2E/DX2                !
 ! A108  A(56,49,57)           107.5157         estimate D2E/DX2                !
 ! A109  A(43,52,49)           115.8897         estimate D2E/DX2                !
 ! A110  A(43,52,58)           120.3132         estimate D2E/DX2                !
 ! A111  A(49,52,58)           123.7962         estimate D2E/DX2                !
 ! A112  A(42,53,55)           119.9529         estimate D2E/DX2                !
 ! A113  A(42,53,59)           118.7892         estimate D2E/DX2                !
 ! A114  A(55,53,59)           121.2523         estimate D2E/DX2                !
 ! A115  A(52,58,59)           119.172          estimate D2E/DX2                !
 ! A116  A(52,58,60)           119.8075         estimate D2E/DX2                !
 ! A117  A(59,58,60)           121.0205         estimate D2E/DX2                !
 ! A118  A(53,59,58)           119.5508         estimate D2E/DX2                !
 ! A119  A(53,59,61)           120.2831         estimate D2E/DX2                !
 ! A120  A(58,59,61)           120.1655         estimate D2E/DX2                !
 ! A121  L(6,19,43,8,-1)       171.7395         estimate D2E/DX2                !
 ! A122  L(8,19,36,6,-1)       175.2812         estimate D2E/DX2                !
 ! A123  L(19,36,62,3,-1)      174.6994         estimate D2E/DX2                !
 ! A124  L(6,19,43,8,-2)       180.3237         estimate D2E/DX2                !
 ! A125  L(8,19,36,6,-2)       172.4098         estimate D2E/DX2                !
 ! A126  L(19,36,62,3,-2)      180.2168         estimate D2E/DX2                !
 ! D1    D(1,2,9,11)           -63.5075         estimate D2E/DX2                !
 ! D2    D(1,2,9,15)            56.1766         estimate D2E/DX2                !
 ! D3    D(1,2,9,21)           173.0278         estimate D2E/DX2                !
 ! D4    D(3,2,9,11)            55.5508         estimate D2E/DX2                !
 ! D5    D(3,2,9,15)           175.235          estimate D2E/DX2                !
 ! D6    D(3,2,9,21)           -67.9139         estimate D2E/DX2                !
 ! D7    D(4,2,9,11)           178.3642         estimate D2E/DX2                !
 ! D8    D(4,2,9,15)           -61.9516         estimate D2E/DX2                !
 ! D9    D(4,2,9,21)            54.8995         estimate D2E/DX2                !
 ! D10   D(63,6,19,8)          173.4988         estimate D2E/DX2                !
 ! D11   D(63,6,19,28)         -92.1909         estimate D2E/DX2                !
 ! D12   D(63,6,19,36)           1.089          estimate D2E/DX2                !
 ! D13   D(63,6,43,42)         111.8235         estimate D2E/DX2                !
 ! D14   D(63,6,43,52)         -74.2939         estimate D2E/DX2                !
 ! D15   D(2,9,21,22)          179.949          estimate D2E/DX2                !
 ! D16   D(2,9,21,34)           56.4525         estimate D2E/DX2                !
 ! D17   D(11,9,21,22)          55.3856         estimate D2E/DX2                !
 ! D18   D(11,9,21,34)         -68.1109         estimate D2E/DX2                !
 ! D19   D(15,9,21,22)         -59.8458         estimate D2E/DX2                !
 ! D20   D(15,9,21,34)         176.6577         estimate D2E/DX2                !
 ! D21   D(5,12,23,26)          60.7478         estimate D2E/DX2                !
 ! D22   D(5,12,23,28)         -55.049          estimate D2E/DX2                !
 ! D23   D(5,12,23,37)         178.9227         estimate D2E/DX2                !
 ! D24   D(10,12,23,26)        -58.0835         estimate D2E/DX2                !
 ! D25   D(10,12,23,28)       -173.8802         estimate D2E/DX2                !
 ! D26   D(10,12,23,37)         60.0914         estimate D2E/DX2                !
 ! D27   D(14,12,23,26)       -177.3812         estimate D2E/DX2                !
 ! D28   D(14,12,23,28)         66.822          estimate D2E/DX2                !
 ! D29   D(14,12,23,37)        -59.2063         estimate D2E/DX2                !
 ! D30   D(7,16,27,28)         -65.8042         estimate D2E/DX2                !
 ! D31   D(7,16,27,30)          58.8336         estimate D2E/DX2                !
 ! D32   D(7,16,27,39)         176.1476         estimate D2E/DX2                !
 ! D33   D(13,16,27,28)         53.9044         estimate D2E/DX2                !
 ! D34   D(13,16,27,30)        178.5423         estimate D2E/DX2                !
 ! D35   D(13,16,27,39)        -64.1438         estimate D2E/DX2                !
 ! D36   D(17,16,27,28)        175.4638         estimate D2E/DX2                !
 ! D37   D(17,16,27,30)        -59.8984         estimate D2E/DX2                !
 ! D38   D(17,16,27,39)         57.4156         estimate D2E/DX2                !
 ! D39   D(6,19,28,23)         -89.2193         estimate D2E/DX2                !
 ! D40   D(6,19,28,27)          47.8104         estimate D2E/DX2                !
 ! D41   D(6,19,28,49)         161.8589         estimate D2E/DX2                !
 ! D42   D(8,19,28,23)          -5.7338         estimate D2E/DX2                !
 ! D43   D(8,19,28,27)         131.2958         estimate D2E/DX2                !
 ! D44   D(8,19,28,49)        -114.6556         estimate D2E/DX2                !
 ! D45   D(36,19,28,23)        177.6415         estimate D2E/DX2                !
 ! D46   D(36,19,28,27)        -45.3289         estimate D2E/DX2                !
 ! D47   D(36,19,28,49)         68.7197         estimate D2E/DX2                !
 ! D48   D(43,19,28,23)         82.4694         estimate D2E/DX2                !
 ! D49   D(43,19,28,27)       -140.501          estimate D2E/DX2                !
 ! D50   D(43,19,28,49)        -26.4524         estimate D2E/DX2                !
 ! D51   D(8,19,43,42)         -62.9899         estimate D2E/DX2                !
 ! D52   D(8,19,43,52)         114.8418         estimate D2E/DX2                !
 ! D53   D(28,19,43,42)       -158.6706         estimate D2E/DX2                !
 ! D54   D(28,19,43,52)         19.1612         estimate D2E/DX2                !
 ! D55   D(36,19,43,42)        109.3656         estimate D2E/DX2                !
 ! D56   D(36,19,43,52)        -72.8027         estimate D2E/DX2                !
 ! D57   D(9,21,22,18)          49.4941         estimate D2E/DX2                !
 ! D58   D(9,21,22,29)         -69.6449         estimate D2E/DX2                !
 ! D59   D(9,21,22,42)         164.4156         estimate D2E/DX2                !
 ! D60   D(34,21,22,18)        174.1269         estimate D2E/DX2                !
 ! D61   D(34,21,22,29)         54.9879         estimate D2E/DX2                !
 ! D62   D(34,21,22,42)        -70.9516         estimate D2E/DX2                !
 ! D63   D(9,21,34,31)         -67.1571         estimate D2E/DX2                !
 ! D64   D(9,21,34,44)          56.1858         estimate D2E/DX2                !
 ! D65   D(9,21,34,46)         179.3725         estimate D2E/DX2                !
 ! D66   D(22,21,34,31)        170.8045         estimate D2E/DX2                !
 ! D67   D(22,21,34,44)        -65.8526         estimate D2E/DX2                !
 ! D68   D(22,21,34,46)         57.3342         estimate D2E/DX2                !
 ! D69   D(18,22,42,43)         75.6531         estimate D2E/DX2                !
 ! D70   D(18,22,42,53)        -99.9526         estimate D2E/DX2                !
 ! D71   D(21,22,42,43)        -38.3198         estimate D2E/DX2                !
 ! D72   D(21,22,42,53)        146.0744         estimate D2E/DX2                !
 ! D73   D(29,22,42,43)       -164.6543         estimate D2E/DX2                !
 ! D74   D(29,22,42,53)         19.7399         estimate D2E/DX2                !
 ! D75   D(12,23,26,20)        -60.1371         estimate D2E/DX2                !
 ! D76   D(12,23,26,24)         58.5955         estimate D2E/DX2                !
 ! D77   D(12,23,26,45)        175.7882         estimate D2E/DX2                !
 ! D78   D(28,23,26,20)         55.7374         estimate D2E/DX2                !
 ! D79   D(28,23,26,24)        174.47           estimate D2E/DX2                !
 ! D80   D(28,23,26,45)        -68.3373         estimate D2E/DX2                !
 ! D81   D(37,23,26,20)        179.5876         estimate D2E/DX2                !
 ! D82   D(37,23,26,24)        -61.6798         estimate D2E/DX2                !
 ! D83   D(37,23,26,45)         55.5129         estimate D2E/DX2                !
 ! D84   D(12,23,28,19)         72.2332         estimate D2E/DX2                !
 ! D85   D(12,23,28,27)        -67.2509         estimate D2E/DX2                !
 ! D86   D(12,23,28,49)        177.652          estimate D2E/DX2                !
 ! D87   D(26,23,28,19)        -44.6902         estimate D2E/DX2                !
 ! D88   D(26,23,28,27)        175.8257         estimate D2E/DX2                !
 ! D89   D(26,23,28,49)         60.7286         estimate D2E/DX2                !
 ! D90   D(37,23,28,19)       -164.0325         estimate D2E/DX2                !
 ! D91   D(37,23,28,27)         56.4833         estimate D2E/DX2                !
 ! D92   D(37,23,28,49)        -58.6137         estimate D2E/DX2                !
 ! D93   D(12,23,37,35)        -70.2896         estimate D2E/DX2                !
 ! D94   D(12,23,37,40)         48.5555         estimate D2E/DX2                !
 ! D95   D(12,23,37,51)        172.4655         estimate D2E/DX2                !
 ! D96   D(26,23,37,35)         48.729          estimate D2E/DX2                !
 ! D97   D(26,23,37,40)        167.5741         estimate D2E/DX2                !
 ! D98   D(26,23,37,51)        -68.516          estimate D2E/DX2                !
 ! D99   D(28,23,37,35)        167.8957         estimate D2E/DX2                !
 ! D100  D(28,23,37,40)        -73.2592         estimate D2E/DX2                !
 ! D101  D(28,23,37,51)         50.6507         estimate D2E/DX2                !
 ! D102  D(16,27,28,19)        -45.3921         estimate D2E/DX2                !
 ! D103  D(16,27,28,23)         93.7782         estimate D2E/DX2                !
 ! D104  D(16,27,28,49)       -153.7094         estimate D2E/DX2                !
 ! D105  D(30,27,28,19)       -166.2954         estimate D2E/DX2                !
 ! D106  D(30,27,28,23)        -27.1251         estimate D2E/DX2                !
 ! D107  D(30,27,28,49)         85.3873         estimate D2E/DX2                !
 ! D108  D(39,27,28,19)         72.7007         estimate D2E/DX2                !
 ! D109  D(39,27,28,23)       -148.1289         estimate D2E/DX2                !
 ! D110  D(39,27,28,49)        -35.6165         estimate D2E/DX2                !
 ! D111  D(16,27,30,25)        -54.0248         estimate D2E/DX2                !
 ! D112  D(16,27,30,33)         63.8717         estimate D2E/DX2                !
 ! D113  D(16,27,30,47)       -177.6331         estimate D2E/DX2                !
 ! D114  D(28,27,30,25)         64.9638         estimate D2E/DX2                !
 ! D115  D(28,27,30,33)       -177.1397         estimate D2E/DX2                !
 ! D116  D(28,27,30,47)        -58.6446         estimate D2E/DX2                !
 ! D117  D(39,27,30,25)       -172.8035         estimate D2E/DX2                !
 ! D118  D(39,27,30,33)        -54.907          estimate D2E/DX2                !
 ! D119  D(39,27,30,47)         63.5881         estimate D2E/DX2                !
 ! D120  D(16,27,39,38)         62.7769         estimate D2E/DX2                !
 ! D121  D(16,27,39,41)        -55.6976         estimate D2E/DX2                !
 ! D122  D(16,27,39,54)       -173.2817         estimate D2E/DX2                !
 ! D123  D(28,27,39,38)        -52.9426         estimate D2E/DX2                !
 ! D124  D(28,27,39,41)       -171.4171         estimate D2E/DX2                !
 ! D125  D(28,27,39,54)         70.9988         estimate D2E/DX2                !
 ! D126  D(30,27,39,38)       -178.6298         estimate D2E/DX2                !
 ! D127  D(30,27,39,41)         62.8956         estimate D2E/DX2                !
 ! D128  D(30,27,39,54)        -54.6885         estimate D2E/DX2                !
 ! D129  D(19,28,49,52)         36.2965         estimate D2E/DX2                !
 ! D130  D(19,28,49,56)        -80.2963         estimate D2E/DX2                !
 ! D131  D(19,28,49,57)        162.0427         estimate D2E/DX2                !
 ! D132  D(23,28,49,52)        -83.6304         estimate D2E/DX2                !
 ! D133  D(23,28,49,56)        159.7768         estimate D2E/DX2                !
 ! D134  D(23,28,49,57)         42.1158         estimate D2E/DX2                !
 ! D135  D(27,28,49,52)        158.2969         estimate D2E/DX2                !
 ! D136  D(27,28,49,56)         41.7041         estimate D2E/DX2                !
 ! D137  D(27,28,49,57)        -75.9569         estimate D2E/DX2                !
 ! D138  D(21,34,44,32)        -62.3174         estimate D2E/DX2                !
 ! D139  D(21,34,44,48)         60.2787         estimate D2E/DX2                !
 ! D140  D(21,34,44,50)        179.0173         estimate D2E/DX2                !
 ! D141  D(31,34,44,32)         59.6686         estimate D2E/DX2                !
 ! D142  D(31,34,44,48)       -177.7353         estimate D2E/DX2                !
 ! D143  D(31,34,44,50)        -58.9967         estimate D2E/DX2                !
 ! D144  D(46,34,44,32)        176.2281         estimate D2E/DX2                !
 ! D145  D(46,34,44,48)        -61.1758         estimate D2E/DX2                !
 ! D146  D(46,34,44,50)         57.5628         estimate D2E/DX2                !
 ! D147  D(22,42,43,19)          4.0043         estimate D2E/DX2                !
 ! D148  D(22,42,43,52)       -173.8587         estimate D2E/DX2                !
 ! D149  D(53,42,43,19)        179.8022         estimate D2E/DX2                !
 ! D150  D(53,42,43,52)          1.9392         estimate D2E/DX2                !
 ! D151  D(22,42,53,55)         -5.2976         estimate D2E/DX2                !
 ! D152  D(22,42,53,59)        173.8519         estimate D2E/DX2                !
 ! D153  D(43,42,53,55)        179.3718         estimate D2E/DX2                !
 ! D154  D(43,42,53,59)         -1.4787         estimate D2E/DX2                !
 ! D155  D(19,43,52,49)          1.6121         estimate D2E/DX2                !
 ! D156  D(19,43,52,58)       -178.7169         estimate D2E/DX2                !
 ! D157  D(42,43,52,49)        179.3319         estimate D2E/DX2                !
 ! D158  D(42,43,52,58)         -0.9971         estimate D2E/DX2                !
 ! D159  D(28,49,52,43)        -27.9221         estimate D2E/DX2                !
 ! D160  D(28,49,52,58)        152.4197         estimate D2E/DX2                !
 ! D161  D(56,49,52,43)         86.8526         estimate D2E/DX2                !
 ! D162  D(56,49,52,58)        -92.8056         estimate D2E/DX2                !
 ! D163  D(57,49,52,43)       -155.1794         estimate D2E/DX2                !
 ! D164  D(57,49,52,58)         25.1624         estimate D2E/DX2                !
 ! D165  D(43,52,58,59)         -0.366          estimate D2E/DX2                !
 ! D166  D(43,52,58,60)        179.7258         estimate D2E/DX2                !
 ! D167  D(49,52,58,59)        179.2778         estimate D2E/DX2                !
 ! D168  D(49,52,58,60)         -0.6304         estimate D2E/DX2                !
 ! D169  D(42,53,59,58)          0.1232         estimate D2E/DX2                !
 ! D170  D(42,53,59,61)       -179.5816         estimate D2E/DX2                !
 ! D171  D(55,53,59,58)        179.2611         estimate D2E/DX2                !
 ! D172  D(55,53,59,61)         -0.4436         estimate D2E/DX2                !
 ! D173  D(52,58,59,53)          0.7744         estimate D2E/DX2                !
 ! D174  D(52,58,59,61)       -179.5205         estimate D2E/DX2                !
 ! D175  D(60,58,59,53)       -179.3185         estimate D2E/DX2                !
 ! D176  D(60,58,59,61)          0.3866         estimate D2E/DX2                !
 --------------------------------------------------------------------------------
 Trust Radius=3.00D-01 FncErr=1.00D-07 GrdErr=1.00D-06 EigMax=2.50D+02 EigMin=1.00D-04
 Number of steps in this run=    376 maximum allowed number of steps=    378.
 GradGradGradGradGradGradGradGradGradGradGradGradGradGradGradGradGradGrad

 Stoichiometry    C20H36N2O3PRu(2)
 Framework group  C1[X(C20H36N2O3PRu)]
 Deg. of freedom   183
 Full point group                 C1      NOp   1
 Largest Abelian subgroup         C1      NOp   1
 Largest concise Abelian subgroup C1      NOp   1
                         Standard orientation:                         
 ---------------------------------------------------------------------
 Center     Atomic      Atomic             Coordinates (Angstroms)
 Number     Number       Type             X           Y           Z
 ---------------------------------------------------------------------
      1          1           0       -3.521626   -3.311586    1.945461
      2          6           0       -3.213346   -2.724090    1.068156
      3          1           0       -3.907278   -2.969214    0.249161
      4          1           0       -2.192072   -3.035020    0.792110
      5          1           0        1.939466   -0.670366    2.703508
      6          8           0       -0.165199   -2.364115    0.925082
      7          1           0        2.964523   -2.595664    0.776897
      8          8           0       -0.510425   -0.074654    2.179358
      9          6           0       -3.228080   -1.256310    1.434920
     10          1           0        3.271943    0.323808    3.351771
     11          1           0       -4.251743   -0.918614    1.687155
     12          6           0        2.883541   -0.170515    2.445877
     13          1           0        1.612518   -2.859431   -0.325815
     14          1           0        3.619056   -0.929108    2.139700
     15          1           0       -2.586347   -1.075719    2.308820
     16          6           0        2.679739   -2.593429   -0.285405
     17          1           0        3.273790   -3.370443   -0.794856
     18          1           0       -2.303625    0.999644    1.867615
     19         44           0       -0.410473   -0.613218    0.186120
     20          1           0        0.701808    1.459630    2.157232
     21          7           0       -2.673469   -0.375545    0.381128
     22          6           0       -2.744266    1.021802    0.855545
     23          6           0        2.646343    0.882443    1.362535
     24          1           0        2.104090    2.372301    2.805327
     25          1           0        4.811905   -0.976016    0.223654
     26          6           0        1.661992    1.932142    1.895374
     27          6           0        2.970744   -1.239447   -0.942834
     28         15           0        1.802019    0.010298   -0.100371
     29          1           0       -3.781956    1.389932    0.906804
     30          6           0        4.460483   -0.925095   -0.814886
     31          1           0       -3.130074   -1.536814   -1.291764
     32          1           0       -5.393412   -1.041171   -0.289097
     33          1           0        5.019436   -1.687072   -1.383218
     34          6           0       -3.360856   -0.530244   -0.921153
     35          1           0        4.220058    2.244563    1.868510
     36          6           0       -0.542421   -1.263034   -1.526843
     37          6           0        3.948548    1.607504    1.010611
     38          1           0        1.592277   -1.513303   -2.647340
     39          6           0        2.648851   -1.314337   -2.437499
     40          1           0        4.792957    0.936988    0.823757
     41          1           0        3.225881   -2.148475   -2.869172
     42          6           0       -1.881212    1.934388    0.038510
     43          7           0       -0.707240    1.394270   -0.335928
     44          6           0       -4.866312   -0.313619   -0.923323
     45          1           0        1.512892    2.756140    1.180313
     46          1           0       -2.878949    0.172508   -1.617776
     47          1           0        4.725089    0.056957   -1.233081
     48          1           0       -5.154375    0.696975   -0.597314
     49          6           0        1.500659    1.405235   -1.317020
     50          1           0       -5.239270   -0.441640   -1.950490
     51          1           0        3.838071    2.277244    0.143336
     52          6           0        0.229603    2.126267   -0.968598
     53          6           0       -2.181010    3.260217   -0.252672
     54          1           0        2.954581   -0.400933   -2.970986
     55          1           0       -3.141232    3.680194    0.048760
     56          1           0        1.364666    0.916753   -2.295453
     57          1           0        2.343254    2.105299   -1.410931
     58          6           0       -0.008927    3.465245   -1.269120
     59          6           0       -1.229615    4.033507   -0.914168
     60          1           0        0.757181    4.051477   -1.777617
     61          1           0       -1.436697    5.079045   -1.148776
     62          8           0       -0.713260   -1.728866   -2.579551
     63          1           0       -0.166965   -3.033502    0.196532
 ---------------------------------------------------------------------
 Rotational constants (GHZ):           0.2478723           0.1589337           0.1330302
 General basis read from cards:  (5D, 7F)
 ======================================================================================================
                                       Pseudopotential Parameters
 ======================================================================================================
  Center     Atomic      Valence      Angular      Power
  Number     Number     Electrons     Momentum     of R      Exponent        Coefficient   SO-Coeffient
 ======================================================================================================
    1          1
                                   No pseudopotential on this center.
    2          6
                                   No pseudopotential on this center.
    3          1
                                   No pseudopotential on this center.
    4          1
                                   No pseudopotential on this center.
    5          1
                                   No pseudopotential on this center.
    6          8
                                   No pseudopotential on this center.
    7          1
                                   No pseudopotential on this center.
    8          8
                                   No pseudopotential on this center.
    9          6
                                   No pseudopotential on this center.
   10          1
                                   No pseudopotential on this center.
   11          1
                                   No pseudopotential on this center.
   12          6
                                   No pseudopotential on this center.
   13          1
                                   No pseudopotential on this center.
   14          1
                                   No pseudopotential on this center.
   15          1
                                   No pseudopotential on this center.
   16          6
                                   No pseudopotential on this center.
   17          1
                                   No pseudopotential on this center.
   18          1
                                   No pseudopotential on this center.
   19         44           16
                                      G and up 
                                                     2        1.0000000        0.00000000    0.00000000
                                      S - G
                                                     2       11.1052690      209.82297100    0.00000000
                                                     2        5.4147450       30.65472600    0.00000000
                                      P - G
                                                     2        9.7712710      146.33618200    0.00000000
                                                     2        5.0739910       24.12787700    0.00000000
                                      D - G
                                                     2        7.6714230       67.51589700    0.00000000
                                                     2        4.1365650        9.87010400    0.00000000
                                      F - G
                                                     2       11.3600000      -28.34061600    0.00000000
                                                     2        5.6800000       -4.94462900    0.00000000
   20          1
                                   No pseudopotential on this center.
   21          7
                                   No pseudopotential on this center.
   22          6
                                   No pseudopotential on this center.
   23          6
                                   No pseudopotential on this center.
   24          1
                                   No pseudopotential on this center.
   25          1
                                   No pseudopotential on this center.
   26          6
                                   No pseudopotential on this center.
   27          6
                                   No pseudopotential on this center.
   28         15
                                   No pseudopotential on this center.
   29          1
                                   No pseudopotential on this center.
   30          6
                                   No pseudopotential on this center.
   31          1
                                   No pseudopotential on this center.
   32          1
                                   No pseudopotential on this center.
   33          1
                                   No pseudopotential on this center.
   34          6
                                   No pseudopotential on this center.
   35          1
                                   No pseudopotential on this center.
   36          6
                                   No pseudopotential on this center.
   37          6
                                   No pseudopotential on this center.
   38          1
                                   No pseudopotential on this center.
   39          6
                                   No pseudopotential on this center.
   40          1
                                   No pseudopotential on this center.
   41          1
                                   No pseudopotential on this center.
   42          6
                                   No pseudopotential on this center.
   43          7
                                   No pseudopotential on this center.
   44          6
                                   No pseudopotential on this center.
   45          1
                                   No pseudopotential on this center.
   46          1
                                   No pseudopotential on this center.
   47          1
                                   No pseudopotential on this center.
   48          1
                                   No pseudopotential on this center.
   49          6
                                   No pseudopotential on this center.
   50          1
                                   No pseudopotential on this center.
   51          1
                                   No pseudopotential on this center.
   52          6
                                   No pseudopotential on this center.
   53          6
                                   No pseudopotential on this center.
   54          1
                                   No pseudopotential on this center.
   55          1
                                   No pseudopotential on this center.
   56          1
                                   No pseudopotential on this center.
   57          1
                                   No pseudopotential on this center.
   58          6
                                   No pseudopotential on this center.
   59          6
                                   No pseudopotential on this center.
   60          1
                                   No pseudopotential on this center.
   61          1
                                   No pseudopotential on this center.
   62          8
                                   No pseudopotential on this center.
   63          1
                                   No pseudopotential on this center.
 ======================================================================================================
 There are   613 symmetry adapted cartesian basis functions of A   symmetry.
 There are   584 symmetry adapted basis functions of A   symmetry.
   584 basis functions,  1213 primitive gaussians,   613 cartesian basis functions
   113 alpha electrons      112 beta electrons
       nuclear repulsion energy      3474.5080336480 Hartrees.
 NAtoms=   63 NActive=   63 NUniq=   63 SFac= 1.00D+00 NAtFMM=   60 NAOKFM=T Big=T
 Integral buffers will be    131072 words long.
 Raffenetti 2 integral format.
 Two-electron integral symmetry is turned on.
 Nuclear repulsion after empirical dispersion term =     3474.4122209518 Hartrees.
 One-electron integrals computed using PRISM.
   1 Symmetry operations used in ECPInt.
 ECPInt:  NShTT=   39340 NPrTT=  276277 LenC2=   36599 LenP2D=  140097.
 LDataN:  DoStor=T MaxTD1= 6 Len=  172
 Number of processors reduced to  16 by ecpmxn.
 NBasis=   584 RedAO= T EigKep=  4.37D-04  NBF=   584
 NBsUse=   584 1.00D-06 EigRej= -1.00D+00 NBFU=   584
 Defaulting to unpruned grid for atomic number  44.
 ExpMin= 1.60D-02 ExpMax= 9.48D+04 ExpMxC= 3.24D+03 IAcc=3 IRadAn=         5 AccDes= 0.00D+00
 Harris functional with IExCor= 1009 and IRadAn=       5 diagonalized for initial guess.
 HarFok:  IExCor= 1009 AccDes= 0.00D+00 IRadAn=         5 IDoV= 1 UseB2=F ITyADJ=14
 ICtDFT=  3500011 ScaDFX=  1.000000  1.000000  1.000000  1.000000
 Defaulting to unpruned grid for atomic number  44.
 FoFCou: FMM=F IPFlag=           0 FMFlag=      100000 FMFlg1=        2001
         NFxFlg=           0 DoJE=T BraDBF=F KetDBF=T FulRan=T
         wScrn=  0.000000 ICntrl=       500 IOpCl=  0 I1Cent=   200000004 NGrid=           0
         NMat0=    1 NMatS0=      1 NMatT0=    0 NMatD0=    1 NMtDS0=    0 NMtDT0=    0
 Petite list used in FoFCou.
 Initial guess <Sx>= 0.0000 <Sy>= 0.0000 <Sz>= 0.5000 <S**2>= 0.7500 S= 0.5000
 Requested convergence on RMS density matrix=1.00D-08 within 128 cycles.
 Requested convergence on MAX density matrix=1.00D-06.
 Requested convergence on             energy=1.00D-06.
 No special actions if energy rises.
 Defaulting to unpruned grid for atomic number  44.
 Defaulting to unpruned grid for atomic number  44.
 Defaulting to unpruned grid for atomic number  44.
 Defaulting to unpruned grid for atomic number  44.
 Defaulting to unpruned grid for atomic number  44.
 Defaulting to unpruned grid for atomic number  44.
 Defaulting to unpruned grid for atomic number  44.
 Defaulting to unpruned grid for atomic number  44.
 Defaulting to unpruned grid for atomic number  44.
 Defaulting to unpruned grid for atomic number  44.
 Defaulting to unpruned grid for atomic number  44.
 Defaulting to unpruned grid for atomic number  44.
 Defaulting to unpruned grid for atomic number  44.
 Defaulting to unpruned grid for atomic number  44.
 Defaulting to unpruned grid for atomic number  44.
 Defaulting to unpruned grid for atomic number  44.
 Defaulting to unpruned grid for atomic number  44.
 Defaulting to unpruned grid for atomic number  44.
 Defaulting to unpruned grid for atomic number  44.
 Defaulting to unpruned grid for atomic number  44.
 EnCoef did   100 forward-backward iterations
 Restarting incremental Fock formation.
 Restarting incremental Fock formation.
 Restarting incremental Fock formation.
 SCF Done:  E(UPBE1PBE) =  -1553.97312292     A.U. after   63 cycles
            NFock= 63  Conv=0.26D-08     -V/T= 2.0466
 <Sx>= 0.0000 <Sy>= 0.0000 <Sz>= 0.5000 <S**2>= 0.7565 S= 0.5033
 <L.S>= 0.000000000000E+00
 Annihilation of the first spin contaminant:
 S**2 before annihilation     0.7565,   after     0.7500

 **********************************************************************

            Population analysis using the SCF density.

 **********************************************************************

 Orbital symmetries:
 Alpha Orbitals:
       Occupied  (A) (A) (A) (A) (A) (A) (A) (A) (A) (A) (A) (A)
                 (A) (A) (A) (A) (A) (A) (A) (A) (A) (A) (A) (A)
                 (A) (A) (A) (A) (A) (A) (A) (A) (A) (A) (A) (A)
                 (A) (A) (A) (A) (A) (A) (A) (A) (A) (A) (A) (A)
                 (A) (A) (A) (A) (A) (A) (A) (A) (A) (A) (A) (A)
                 (A) (A) (A) (A) (A) (A) (A) (A) (A) (A) (A) (A)
                 (A) (A) (A) (A) (A) (A) (A) (A) (A) (A) (A) (A)
                 (A) (A) (A) (A) (A) (A) (A) (A) (A) (A) (A) (A)
                 (A) (A) (A) (A) (A) (A) (A) (A) (A) (A) (A) (A)
                 (A) (A) (A) (A) (A)
       Virtual   (A) (A) (A) (A) (A) (A) (A) (A) (A) (A) (A) (A)
                 (A) (A) (A) (A) (A) (A) (A) (A) (A) (A) (A) (A)
                 (A) (A) (A) (A) (A) (A) (A) (A) (A) (A) (A) (A)
                 (A) (A) (A) (A) (A) (A) (A) (A) (A) (A) (A) (A)
                 (A) (A) (A) (A) (A) (A) (A) (A) (A) (A) (A) (A)
                 (A) (A) (A) (A) (A) (A) (A) (A) (A) (A) (A) (A)
                 (A) (A) (A) (A) (A) (A) (A) (A) (A) (A) (A) (A)
                 (A) (A) (A) (A) (A) (A) (A) (A) (A) (A) (A) (A)
                 (A) (A) (A) (A) (A) (A) (A) (A) (A) (A) (A) (A)
                 (A) (A) (A) (A) (A) (A) (A) (A) (A) (A) (A) (A)
                 (A) (A) (A) (A) (A) (A) (A) (A) (A) (A) (A) (A)
                 (A) (A) (A) (A) (A) (A) (A) (A) (A) (A) (A) (A)
                 (A) (A) (A) (A) (A) (A) (A) (A) (A) (A) (A) (A)
                 (A) (A) (A) (A) (A) (A) (A) (A) (A) (A) (A) (A)
                 (A) (A) (A) (A) (A) (A) (A) (A) (A) (A) (A) (A)
                 (A) (A) (A) (A) (A) (A) (A) (A) (A) (A) (A) (A)
                 (A) (A) (A) (A) (A) (A) (A) (A) (A) (A) (A) (A)
                 (A) (A) (A) (A) (A) (A) (A) (A) (A) (A) (A) (A)
                 (A) (A) (A) (A) (A) (A) (A) (A) (A) (A) (A) (A)
                 (A) (A) (A) (A) (A) (A) (A) (A) (A) (A) (A) (A)
                 (A) (A) (A) (A) (A) (A) (A) (A) (A) (A) (A) (A)
                 (A) (A) (A) (A) (A) (A) (A) (A) (A) (A) (A) (A)
                 (A) (A) (A) (A) (A) (A) (A) (A) (A) (A) (A) (A)
                 (A) (A) (A) (A) (A) (A) (A) (A) (A) (A) (A) (A)
                 (A) (A) (A) (A) (A) (A) (A) (A) (A) (A) (A) (A)
                 (A) (A) (A) (A) (A) (A) (A) (A) (A) (A) (A) (A)
                 (A) (A) (A) (A) (A) (A) (A) (A) (A) (A) (A) (A)
                 (A) (A) (A) (A) (A) (A) (A) (A) (A) (A) (A) (A)
                 (A) (A) (A) (A) (A) (A) (A) (A) (A) (A) (A) (A)
                 (A) (A) (A) (A) (A) (A) (A) (A) (A) (A) (A) (A)
                 (A) (A) (A) (A) (A) (A) (A) (A) (A) (A) (A) (A)
                 (A) (A) (A) (A) (A) (A) (A) (A) (A) (A) (A) (A)
                 (A) (A) (A) (A) (A) (A) (A) (A) (A) (A) (A) (A)
                 (A) (A) (A) (A) (A) (A) (A) (A) (A) (A) (A) (A)
                 (A) (A) (A) (A) (A) (A) (A) (A) (A) (A) (A) (A)
                 (A) (A) (A) (A) (A) (A) (A) (A) (A) (A) (A) (A)
                 (A) (A) (A) (A) (A) (A) (A) (A) (A) (A) (A) (A)
                 (A) (A) (A) (A) (A) (A) (A) (A) (A) (A) (A) (A)
                 (A) (A) (A) (A) (A) (A) (A) (A) (A) (A) (A) (A)
                 (A) (A) (A)
 Beta  Orbitals:
       Occupied  (A) (A) (A) (A) (A) (A) (A) (A) (A) (A) (A) (A)
                 (A) (A) (A) (A) (A) (A) (A) (A) (A) (A) (A) (A)
                 (A) (A) (A) (A) (A) (A) (A) (A) (A) (A) (A) (A)
                 (A) (A) (A) (A) (A) (A) (A) (A) (A) (A) (A) (A)
                 (A) (A) (A) (A) (A) (A) (A) (A) (A) (A) (A) (A)
                 (A) (A) (A) (A) (A) (A) (A) (A) (A) (A) (A) (A)
                 (A) (A) (A) (A) (A) (A) (A) (A) (A) (A) (A) (A)
                 (A) (A) (A) (A) (A) (A) (A) (A) (A) (A) (A) (A)
                 (A) (A) (A) (A) (A) (A) (A) (A) (A) (A) (A) (A)
                 (A) (A) (A) (A)
       Virtual   (A) (A) (A) (A) (A) (A) (A) (A) (A) (A) (A) (A)
                 (A) (A) (A) (A) (A) (A) (A) (A) (A) (A) (A) (A)
                 (A) (A) (A) (A) (A) (A) (A) (A) (A) (A) (A) (A)
                 (A) (A) (A) (A) (A) (A) (A) (A) (A) (A) (A) (A)
                 (A) (A) (A) (A) (A) (A) (A) (A) (A) (A) (A) (A)
                 (A) (A) (A) (A) (A) (A) (A) (A) (A) (A) (A) (A)
                 (A) (A) (A) (A) (A) (A) (A) (A) (A) (A) (A) (A)
                 (A) (A) (A) (A) (A) (A) (A) (A) (A) (A) (A) (A)
                 (A) (A) (A) (A) (A) (A) (A) (A) (A) (A) (A) (A)
                 (A) (A) (A) (A) (A) (A) (A) (A) (A) (A) (A) (A)
                 (A) (A) (A) (A) (A) (A) (A) (A) (A) (A) (A) (A)
                 (A) (A) (A) (A) (A) (A) (A) (A) (A) (A) (A) (A)
                 (A) (A) (A) (A) (A) (A) (A) (A) (A) (A) (A) (A)
                 (A) (A) (A) (A) (A) (A) (A) (A) (A) (A) (A) (A)
                 (A) (A) (A) (A) (A) (A) (A) (A) (A) (A) (A) (A)
                 (A) (A) (A) (A) (A) (A) (A) (A) (A) (A) (A) (A)
                 (A) (A) (A) (A) (A) (A) (A) (A) (A) (A) (A) (A)
                 (A) (A) (A) (A) (A) (A) (A) (A) (A) (A) (A) (A)
                 (A) (A) (A) (A) (A) (A) (A) (A) (A) (A) (A) (A)
                 (A) (A) (A) (A) (A) (A) (A) (A) (A) (A) (A) (A)
                 (A) (A) (A) (A) (A) (A) (A) (A) (A) (A) (A) (A)
                 (A) (A) (A) (A) (A) (A) (A) (A) (A) (A) (A) (A)
                 (A) (A) (A) (A) (A) (A) (A) (A) (A) (A) (A) (A)
                 (A) (A) (A) (A) (A) (A) (A) (A) (A) (A) (A) (A)
                 (A) (A) (A) (A) (A) (A) (A) (A) (A) (A) (A) (A)
                 (A) (A) (A) (A) (A) (A) (A) (A) (A) (A) (A) (A)
                 (A) (A) (A) (A) (A) (A) (A) (A) (A) (A) (A) (A)
                 (A) (A) (A) (A) (A) (A) (A) (A) (A) (A) (A) (A)
                 (A) (A) (A) (A) (A) (A) (A) (A) (A) (A) (A) (A)
                 (A) (A) (A) (A) (A) (A) (A) (A) (A) (A) (A) (A)
                 (A) (A) (A) (A) (A) (A) (A) (A) (A) (A) (A) (A)
                 (A) (A) (A) (A) (A) (A) (A) (A) (A) (A) (A) (A)
                 (A) (A) (A) (A) (A) (A) (A) (A) (A) (A) (A) (A)
                 (A) (A) (A) (A) (A) (A) (A) (A) (A) (A) (A) (A)
                 (A) (A) (A) (A) (A) (A) (A) (A) (A) (A) (A) (A)
                 (A) (A) (A) (A) (A) (A) (A) (A) (A) (A) (A) (A)
                 (A) (A) (A) (A) (A) (A) (A) (A) (A) (A) (A) (A)
                 (A) (A) (A) (A) (A) (A) (A) (A) (A) (A) (A) (A)
                 (A) (A) (A) (A) (A) (A) (A) (A) (A) (A) (A) (A)
                 (A) (A) (A) (A)
 The electronic state is 2-A.
 Alpha  occ. eigenvalues --  -77.25752 -19.25725 -19.16559 -19.12815 -14.44724
 Alpha  occ. eigenvalues --  -14.43351 -10.30927 -10.30778 -10.30087 -10.27598
 Alpha  occ. eigenvalues --  -10.26828 -10.26608 -10.26534 -10.26266 -10.26252
 Alpha  occ. eigenvalues --  -10.26222 -10.25684 -10.24578 -10.23316 -10.23153
 Alpha  occ. eigenvalues --  -10.22897 -10.22840 -10.21395 -10.21244 -10.21176
 Alpha  occ. eigenvalues --  -10.20260  -6.63685  -4.77354  -4.77244  -4.76972
 Alpha  occ. eigenvalues --   -3.03337  -1.87276  -1.86203  -1.85707  -1.12303
 Alpha  occ. eigenvalues --   -1.01665  -0.96973  -0.90634  -0.87627  -0.85936
 Alpha  occ. eigenvalues --   -0.85318  -0.84353  -0.83103  -0.78464  -0.77464
 Alpha  occ. eigenvalues --   -0.75179  -0.71428  -0.71137  -0.70713  -0.69921
 Alpha  occ. eigenvalues --   -0.69451  -0.66980  -0.66787  -0.63829  -0.62970
 Alpha  occ. eigenvalues --   -0.57900  -0.56509  -0.55982  -0.54773  -0.54073
 Alpha  occ. eigenvalues --   -0.52566  -0.51455  -0.50606  -0.49427  -0.48900
 Alpha  occ. eigenvalues --   -0.47098  -0.46666  -0.46297  -0.45803  -0.45505
 Alpha  occ. eigenvalues --   -0.45131  -0.44992  -0.44774  -0.44130  -0.43763
 Alpha  occ. eigenvalues --   -0.43682  -0.43591  -0.42625  -0.42155  -0.41408
 Alpha  occ. eigenvalues --   -0.40858  -0.40678  -0.40587  -0.39838  -0.39381
 Alpha  occ. eigenvalues --   -0.38637  -0.38347  -0.38154  -0.37591  -0.37138
 Alpha  occ. eigenvalues --   -0.36581  -0.36176  -0.35834  -0.35349  -0.34942
 Alpha  occ. eigenvalues --   -0.34770  -0.34283  -0.33753  -0.33466  -0.33384
 Alpha  occ. eigenvalues --   -0.32768  -0.31643  -0.30367  -0.29890  -0.28539
 Alpha  occ. eigenvalues --   -0.28110  -0.27709  -0.27470  -0.26335  -0.25976
 Alpha  occ. eigenvalues --   -0.21076  -0.19876  -0.15888
 Alpha virt. eigenvalues --   -0.04965  -0.03141   0.00658   0.00846   0.02231
 Alpha virt. eigenvalues --    0.03056   0.03344   0.03936   0.05196   0.05949
 Alpha virt. eigenvalues --    0.06972   0.07231   0.07979   0.08458   0.08662
 Alpha virt. eigenvalues --    0.09357   0.10147   0.10275   0.10327   0.10897
 Alpha virt. eigenvalues --    0.11617   0.12203   0.12355   0.12617   0.12759
 Alpha virt. eigenvalues --    0.13333   0.13480   0.13748   0.14437   0.14963
 Alpha virt. eigenvalues --    0.15248   0.15285   0.15754   0.16353   0.16967
 Alpha virt. eigenvalues --    0.17218   0.17772   0.18147   0.18334   0.18685
 Alpha virt. eigenvalues --    0.18949   0.19402   0.19937   0.20071   0.20605
 Alpha virt. eigenvalues --    0.20640   0.21121   0.21464   0.21908   0.22119
 Alpha virt. eigenvalues --    0.22427   0.22892   0.23123   0.23650   0.23868
 Alpha virt. eigenvalues --    0.24192   0.24761   0.24818   0.26147   0.26524
 Alpha virt. eigenvalues --    0.26766   0.27313   0.27580   0.27952   0.28814
 Alpha virt. eigenvalues --    0.29491   0.30614   0.31063   0.31760   0.32901
 Alpha virt. eigenvalues --    0.32988   0.34373   0.34571   0.35468   0.36261
 Alpha virt. eigenvalues --    0.37757   0.39203   0.39638   0.41705   0.42117
 Alpha virt. eigenvalues --    0.42829   0.43157   0.43470   0.43909   0.44192
 Alpha virt. eigenvalues --    0.45110   0.45683   0.45946   0.47491   0.47894
 Alpha virt. eigenvalues --    0.48656   0.49085   0.49267   0.50389   0.50454
 Alpha virt. eigenvalues --    0.51506   0.52000   0.52955   0.53429   0.54261
 Alpha virt. eigenvalues --    0.54473   0.55136   0.55658   0.55883   0.56626
 Alpha virt. eigenvalues --    0.57083   0.57599   0.57952   0.58097   0.58968
 Alpha virt. eigenvalues --    0.59338   0.60563   0.60776   0.61397   0.61501
 Alpha virt. eigenvalues --    0.61867   0.62450   0.62683   0.63291   0.63515
 Alpha virt. eigenvalues --    0.63638   0.64186   0.64835   0.65313   0.65368
 Alpha virt. eigenvalues --    0.65502   0.65786   0.66393   0.66534   0.66761
 Alpha virt. eigenvalues --    0.67371   0.67462   0.67706   0.67952   0.68379
 Alpha virt. eigenvalues --    0.68496   0.68611   0.69254   0.69743   0.70057
 Alpha virt. eigenvalues --    0.70394   0.70758   0.70992   0.71312   0.72137
 Alpha virt. eigenvalues --    0.72741   0.72847   0.73670   0.73745   0.73983
 Alpha virt. eigenvalues --    0.74546   0.75514   0.75924   0.76031   0.76417
 Alpha virt. eigenvalues --    0.77130   0.77355   0.78191   0.78341   0.78773
 Alpha virt. eigenvalues --    0.79282   0.79711   0.80299   0.80707   0.81717
 Alpha virt. eigenvalues --    0.82279   0.82483   0.83527   0.83859   0.84348
 Alpha virt. eigenvalues --    0.84744   0.85179   0.85780   0.86035   0.86766
 Alpha virt. eigenvalues --    0.86946   0.88370   0.88907   0.89225   0.90168
 Alpha virt. eigenvalues --    0.90820   0.91401   0.91687   0.93005   0.93298
 Alpha virt. eigenvalues --    0.94490   0.95499   0.96231   0.96590   0.96765
 Alpha virt. eigenvalues --    0.97720   0.98059   0.98873   0.99973   1.00086
 Alpha virt. eigenvalues --    1.01318   1.01472   1.02189   1.03120   1.04033
 Alpha virt. eigenvalues --    1.05451   1.06045   1.06767   1.07965   1.08696
 Alpha virt. eigenvalues --    1.09776   1.11186   1.11531   1.12130   1.13809
 Alpha virt. eigenvalues --    1.14342   1.14825   1.16952   1.17466   1.17956
 Alpha virt. eigenvalues --    1.18412   1.20277   1.21656   1.22520   1.23470
 Alpha virt. eigenvalues --    1.24634   1.25563   1.26198   1.27309   1.27608
 Alpha virt. eigenvalues --    1.28886   1.29944   1.30484   1.30940   1.31312
 Alpha virt. eigenvalues --    1.32042   1.33257   1.33799   1.34293   1.34901
 Alpha virt. eigenvalues --    1.35143   1.35923   1.36537   1.37649   1.37825
 Alpha virt. eigenvalues --    1.38550   1.38941   1.39754   1.40537   1.41011
 Alpha virt. eigenvalues --    1.41314   1.42539   1.42829   1.43271   1.43801
 Alpha virt. eigenvalues --    1.44601   1.45276   1.45503   1.46268   1.46354
 Alpha virt. eigenvalues --    1.47463   1.48191   1.48481   1.49216   1.49702
 Alpha virt. eigenvalues --    1.50057   1.50785   1.51505   1.52185   1.52537
 Alpha virt. eigenvalues --    1.53000   1.53453   1.53892   1.54849   1.55308
 Alpha virt. eigenvalues --    1.55843   1.56132   1.56337   1.58079   1.58361
 Alpha virt. eigenvalues --    1.59692   1.60278   1.60747   1.61861   1.62557
 Alpha virt. eigenvalues --    1.63087   1.63324   1.63798   1.64260   1.64628
 Alpha virt. eigenvalues --    1.64993   1.65143   1.66132   1.66523   1.67029
 Alpha virt. eigenvalues --    1.67489   1.68180   1.68653   1.69634   1.69940
 Alpha virt. eigenvalues --    1.70339   1.70863   1.71000   1.71575   1.72276
 Alpha virt. eigenvalues --    1.72953   1.73267   1.73573   1.74201   1.74354
 Alpha virt. eigenvalues --    1.74830   1.75030   1.75623   1.75730   1.76184
 Alpha virt. eigenvalues --    1.76438   1.76877   1.77213   1.77752   1.77803
 Alpha virt. eigenvalues --    1.78659   1.79222   1.79353   1.79647   1.80509
 Alpha virt. eigenvalues --    1.80876   1.81373   1.82101   1.83090   1.83581
 Alpha virt. eigenvalues --    1.83758   1.84318   1.84631   1.85246   1.85868
 Alpha virt. eigenvalues --    1.86462   1.86853   1.88085   1.88621   1.88952
 Alpha virt. eigenvalues --    1.89355   1.90228   1.90683   1.91205   1.91427
 Alpha virt. eigenvalues --    1.92237   1.93377   1.93854   1.95464   1.96120
 Alpha virt. eigenvalues --    1.96438   1.97400   1.98440   1.99408   1.99589
 Alpha virt. eigenvalues --    1.99906   2.00850   2.01297   2.02170   2.02596
 Alpha virt. eigenvalues --    2.03061   2.03683   2.04412   2.05411   2.06445
 Alpha virt. eigenvalues --    2.07019   2.07136   2.07307   2.07898   2.08519
 Alpha virt. eigenvalues --    2.09340   2.09800   2.10286   2.11382   2.12766
 Alpha virt. eigenvalues --    2.12833   2.14101   2.14823   2.15408   2.17135
 Alpha virt. eigenvalues --    2.17999   2.18938   2.19966   2.20394   2.21483
 Alpha virt. eigenvalues --    2.22774   2.24386   2.24786   2.25331   2.25898
 Alpha virt. eigenvalues --    2.26459   2.27127   2.27999   2.28639   2.29723
 Alpha virt. eigenvalues --    2.30259   2.31925   2.33331   2.34807   2.35689
 Alpha virt. eigenvalues --    2.37965   2.39395   2.39600   2.40368   2.40874
 Alpha virt. eigenvalues --    2.41485   2.41795   2.42129   2.43177   2.43617
 Alpha virt. eigenvalues --    2.45037   2.45710   2.45921   2.46625   2.47039
 Alpha virt. eigenvalues --    2.48046   2.48557   2.49006   2.50035   2.50557
 Alpha virt. eigenvalues --    2.51332   2.51747   2.52086   2.52645   2.53077
 Alpha virt. eigenvalues --    2.54502   2.54753   2.55473   2.56042   2.56566
 Alpha virt. eigenvalues --    2.56913   2.57201   2.58396   2.58880   2.59143
 Alpha virt. eigenvalues --    2.59578   2.60228   2.61988   2.63721   2.64108
 Alpha virt. eigenvalues --    2.66394   2.66858   2.68386   2.69219   2.69368
 Alpha virt. eigenvalues --    2.71091   2.71364   2.72513   2.73493   2.74968
 Alpha virt. eigenvalues --    2.75416   2.77413   2.78391   2.79219   2.79890
 Alpha virt. eigenvalues --    2.81692   2.82556   2.83870   2.86782   2.87588
 Alpha virt. eigenvalues --    2.89762   2.93740   3.00329   3.01774   3.03064
 Alpha virt. eigenvalues --    3.04543   3.13516   3.15210   3.19562   3.49556
 Alpha virt. eigenvalues --    3.58485   3.83698  34.90178  35.02973  35.07165
 Alpha virt. eigenvalues --   46.02750
  Beta  occ. eigenvalues --  -77.25752 -19.25677 -19.14072 -19.12806 -14.44703
  Beta  occ. eigenvalues --  -14.43350 -10.30920 -10.30783 -10.30091 -10.27601
  Beta  occ. eigenvalues --  -10.26823 -10.26606 -10.26532 -10.26266 -10.26252
  Beta  occ. eigenvalues --  -10.26221 -10.25687 -10.24570 -10.23316 -10.23153
  Beta  occ. eigenvalues --  -10.22897 -10.22838 -10.21395 -10.21190 -10.21177
  Beta  occ. eigenvalues --  -10.20260  -6.63686  -4.77354  -4.77244  -4.76972
  Beta  occ. eigenvalues --   -3.03285  -1.87231  -1.86090  -1.85686  -1.12227
  Beta  occ. eigenvalues --   -1.01647  -0.96959  -0.90579  -0.85948  -0.85321
  Beta  occ. eigenvalues --   -0.84385  -0.83163  -0.79921  -0.78308  -0.77454
  Beta  occ. eigenvalues --   -0.75173  -0.71420  -0.71118  -0.70710  -0.69909
  Beta  occ. eigenvalues --   -0.69358  -0.66973  -0.66774  -0.63821  -0.62964
  Beta  occ. eigenvalues --   -0.57888  -0.56494  -0.55862  -0.54762  -0.54059
  Beta  occ. eigenvalues --   -0.52522  -0.51432  -0.50565  -0.49421  -0.48896
  Beta  occ. eigenvalues --   -0.47079  -0.46662  -0.46256  -0.45780  -0.45468
  Beta  occ. eigenvalues --   -0.44986  -0.44818  -0.44746  -0.44077  -0.43701
  Beta  occ. eigenvalues --   -0.43631  -0.43431  -0.42594  -0.42126  -0.41353
  Beta  occ. eigenvalues --   -0.40731  -0.40664  -0.40403  -0.39829  -0.39334
  Beta  occ. eigenvalues --   -0.38576  -0.38289  -0.38102  -0.37267  -0.37035
  Beta  occ. eigenvalues --   -0.36470  -0.36141  -0.35790  -0.35312  -0.34865
  Beta  occ. eigenvalues --   -0.34725  -0.34051  -0.33730  -0.33434  -0.33237
  Beta  occ. eigenvalues --   -0.32690  -0.31621  -0.30300  -0.28247  -0.27918
  Beta  occ. eigenvalues --   -0.27559  -0.27280  -0.25891  -0.24325  -0.21661
  Beta  occ. eigenvalues --   -0.18519  -0.15860
  Beta virt. eigenvalues --   -0.05247  -0.04865  -0.03104   0.00696   0.01034
  Beta virt. eigenvalues --    0.02764   0.03084   0.03578   0.04001   0.05326
  Beta virt. eigenvalues --    0.06030   0.06995   0.07244   0.08069   0.08480
  Beta virt. eigenvalues --    0.08686   0.09395   0.10190   0.10281   0.10406
  Beta virt. eigenvalues --    0.10907   0.11627   0.12236   0.12422   0.12619
  Beta virt. eigenvalues --    0.12823   0.13438   0.13567   0.13761   0.14472
  Beta virt. eigenvalues --    0.14979   0.15270   0.15394   0.15763   0.16357
  Beta virt. eigenvalues --    0.17031   0.17296   0.17906   0.18169   0.18349
  Beta virt. eigenvalues --    0.18761   0.18973   0.19460   0.19940   0.20082
  Beta virt. eigenvalues --    0.20625   0.20651   0.21152   0.21582   0.22031
  Beta virt. eigenvalues --    0.22161   0.22582   0.22935   0.23165   0.23710
  Beta virt. eigenvalues --    0.24023   0.24405   0.24788   0.24836   0.26289
  Beta virt. eigenvalues --    0.26585   0.26956   0.27560   0.27611   0.28038
  Beta virt. eigenvalues --    0.28835   0.29505   0.30638   0.31095   0.31771
  Beta virt. eigenvalues --    0.33009   0.33062   0.34420   0.34718   0.35550
  Beta virt. eigenvalues --    0.36569   0.37908   0.39271   0.39669   0.41738
  Beta virt. eigenvalues --    0.42139   0.42891   0.43222   0.43486   0.43957
  Beta virt. eigenvalues --    0.44224   0.45131   0.45761   0.46090   0.47505
  Beta virt. eigenvalues --    0.47955   0.48692   0.49138   0.49323   0.50400
  Beta virt. eigenvalues --    0.50490   0.51544   0.52029   0.52989   0.53462
  Beta virt. eigenvalues --    0.54347   0.54496   0.55204   0.55682   0.55941
  Beta virt. eigenvalues --    0.56640   0.57110   0.57606   0.58003   0.58145
  Beta virt. eigenvalues --    0.58994   0.59435   0.60629   0.60794   0.61423
  Beta virt. eigenvalues --    0.61514   0.61884   0.62470   0.62705   0.63312
  Beta virt. eigenvalues --    0.63532   0.63672   0.64216   0.64839   0.65323
  Beta virt. eigenvalues --    0.65399   0.65519   0.65842   0.66435   0.66587
  Beta virt. eigenvalues --    0.66808   0.67409   0.67499   0.67782   0.67985
  Beta virt. eigenvalues --    0.68400   0.68509   0.68688   0.69264   0.69776
  Beta virt. eigenvalues --    0.70097   0.70409   0.70772   0.71034   0.71328
  Beta virt. eigenvalues --    0.72166   0.72749   0.72903   0.73680   0.73774
  Beta virt. eigenvalues --    0.74047   0.74582   0.75570   0.75935   0.76058
  Beta virt. eigenvalues --    0.76428   0.77137   0.77417   0.78200   0.78357
  Beta virt. eigenvalues --    0.78795   0.79339   0.79765   0.80333   0.80752
  Beta virt. eigenvalues --    0.81748   0.82304   0.82501   0.83569   0.83876
  Beta virt. eigenvalues --    0.84413   0.84785   0.85224   0.85849   0.86058
  Beta virt. eigenvalues --    0.86797   0.86992   0.88382   0.88961   0.89283
  Beta virt. eigenvalues --    0.90222   0.90840   0.91418   0.91784   0.93024
  Beta virt. eigenvalues --    0.93324   0.94513   0.95508   0.96282   0.96632
  Beta virt. eigenvalues --    0.96808   0.97760   0.98167   0.98918   0.99995
  Beta virt. eigenvalues --    1.00127   1.01357   1.01504   1.02202   1.03223
  Beta virt. eigenvalues --    1.04073   1.05519   1.06097   1.06978   1.08063
  Beta virt. eigenvalues --    1.08875   1.09817   1.11244   1.11597   1.12404
  Beta virt. eigenvalues --    1.13950   1.14509   1.15179   1.17074   1.17514
  Beta virt. eigenvalues --    1.18247   1.19113   1.20332   1.21847   1.22579
  Beta virt. eigenvalues --    1.24176   1.24878   1.25754   1.26654   1.27658
  Beta virt. eigenvalues --    1.28017   1.28945   1.30215   1.30604   1.31269
  Beta virt. eigenvalues --    1.31403   1.32180   1.33324   1.33940   1.34617
  Beta virt. eigenvalues --    1.34933   1.35288   1.36135   1.36701   1.37775
  Beta virt. eigenvalues --    1.38615   1.38752   1.39023   1.39850   1.40594
  Beta virt. eigenvalues --    1.41297   1.41424   1.42554   1.42919   1.43289
  Beta virt. eigenvalues --    1.43847   1.44657   1.45329   1.45583   1.46291
  Beta virt. eigenvalues --    1.46589   1.47522   1.48267   1.48684   1.49312
  Beta virt. eigenvalues --    1.49970   1.50125   1.50823   1.51547   1.52229
  Beta virt. eigenvalues --    1.52610   1.53062   1.53475   1.54028   1.54868
  Beta virt. eigenvalues --    1.55337   1.55910   1.56172   1.56376   1.58101
  Beta virt. eigenvalues --    1.58462   1.59745   1.60325   1.60841   1.61899
  Beta virt. eigenvalues --    1.62577   1.63114   1.63367   1.63836   1.64311
  Beta virt. eigenvalues --    1.64665   1.65014   1.65198   1.66146   1.66586
  Beta virt. eigenvalues --    1.67121   1.67507   1.68202   1.68687   1.69657
  Beta virt. eigenvalues --    1.69984   1.70351   1.70870   1.71025   1.71584
  Beta virt. eigenvalues --    1.72308   1.72971   1.73318   1.73605   1.74243
  Beta virt. eigenvalues --    1.74372   1.74834   1.75053   1.75653   1.75745
  Beta virt. eigenvalues --    1.76208   1.76502   1.76885   1.77260   1.77805
  Beta virt. eigenvalues --    1.77876   1.78680   1.79252   1.79371   1.79725
  Beta virt. eigenvalues --    1.80550   1.80962   1.81390   1.82126   1.83117
  Beta virt. eigenvalues --    1.83615   1.83846   1.84399   1.84681   1.85266
  Beta virt. eigenvalues --    1.85885   1.86487   1.86985   1.88193   1.88661
  Beta virt. eigenvalues --    1.89008   1.89405   1.90270   1.90703   1.91236
  Beta virt. eigenvalues --    1.91495   1.92283   1.93418   1.93873   1.95510
  Beta virt. eigenvalues --    1.96166   1.96484   1.97435   1.98495   1.99469
  Beta virt. eigenvalues --    1.99627   1.99935   2.00880   2.01338   2.02193
  Beta virt. eigenvalues --    2.02620   2.03097   2.03706   2.04440   2.05445
  Beta virt. eigenvalues --    2.06463   2.07032   2.07209   2.07348   2.07912
  Beta virt. eigenvalues --    2.08542   2.09375   2.09858   2.10363   2.11474
  Beta virt. eigenvalues --    2.12795   2.12947   2.14134   2.14840   2.15439
  Beta virt. eigenvalues --    2.17184   2.18011   2.18992   2.19987   2.20445
  Beta virt. eigenvalues --    2.21675   2.22834   2.24406   2.24969   2.25396
  Beta virt. eigenvalues --    2.25918   2.26521   2.27209   2.28048   2.28688
  Beta virt. eigenvalues --    2.29767   2.30320   2.32016   2.33810   2.35225
  Beta virt. eigenvalues --    2.36012   2.38080   2.39440   2.39647   2.40382
  Beta virt. eigenvalues --    2.40906   2.41508   2.41818   2.42212   2.43261
  Beta virt. eigenvalues --    2.43683   2.45063   2.45715   2.45945   2.46637
  Beta virt. eigenvalues --    2.47185   2.48067   2.48639   2.49075   2.50062
  Beta virt. eigenvalues --    2.50674   2.51349   2.51809   2.52160   2.52667
  Beta virt. eigenvalues --    2.53151   2.54575   2.54779   2.55671   2.56116
  Beta virt. eigenvalues --    2.56596   2.57081   2.57254   2.58454   2.58892
  Beta virt. eigenvalues --    2.59260   2.59621   2.60267   2.62105   2.63988
  Beta virt. eigenvalues --    2.64257   2.66471   2.67130   2.68698   2.69530
  Beta virt. eigenvalues --    2.69898   2.71187   2.71609   2.73481   2.74307
  Beta virt. eigenvalues --    2.76033   2.76310   2.78331   2.80593   2.81138
  Beta virt. eigenvalues --    2.81493   2.82951   2.84685   2.85620   2.88728
  Beta virt. eigenvalues --    2.89203   2.91712   2.94148   3.00758   3.03073
  Beta virt. eigenvalues --    3.04149   3.04699   3.13609   3.15963   3.20023
[...]
 429,0.00000369,0.00000947,0.00000061,0.00000222,0.00000190,0.00001593,
 -0.00000115,0.00001296,0.00002448,-0.00006152,-0.00013728,-0.00000052,
 -0.00000331,0.00001270,-0.00000565,0.00000813,0.00000321,0.00000712,0.
 00002708,0.00000635,-0.00000236,0.00000295,0.00000020,-0.00000273,-0.0
 0000351,-0.00000252,0.00000063,0.00000237,-0.00000866,0.00001793,-0.00
 001836,-0.00003918,0.00001046,-0.00001304,0.00000692,-0.00006216,-0.00
 002421,0.00004380,-0.00017685,0.00014585,-0.00012703,-0.00000117,-0.00
 001313,-0.00001002,-0.00013699,-0.00016508,0.00023125,0.00065012,-0.00
 033064,-0.00036265,-0.00000936,-0.00002840,-0.00000838,0.00001392,-0.0
 0000413,0.00001909,-0.00000165,0.00000139,0.00000072,0.00000622,0.0000
 2366,0.00001645,-0.00001701,-0.00002500,0.00008282,0.00010246,0.000107
 34,-0.00020337,-0.00001162,-0.00000212,-0.00001105,-0.00000765,-0.0000
 0722,-0.00000605,-0.00001574,-0.00000945,-0.00001334,-0.00000117,0.000
 00231,0.00000194,0.00000824,-0.00000753,-0.00000090,0.00005055,-0.0000
 1532,0.00007556,0.00000485,0.00000079,0.00000593,0.00003068,0.00000041
 ,0.00003713,-0.00000566,0.00000395,0.00000863,-0.00000054,-0.00000161,
 0.00000196,0.00000797,0.00000496,0.00000144,0.00000195,-0.00000313,0.0
 0000020,0.00000476,-0.00000791,-0.00000326,-0.00250657,0.00072116,0.00
 332307,-0.00044183,0.00014371,-0.00061437,-0.00000716,0.00000495,-0.00
 001856,-0.00000531,-0.00001790,-0.00002114,0.00000445,0.00001304,0.000
 01300,-0.00000835,0.00000224,0.00001190,0.00000897,-0.00000337,0.00001
 536,-0.00025999,-0.00046005,0.00012983,-0.00001101,-0.00001253,-0.0000
 1116,-0.00000782,-0.00000685,-0.00000294,0.00294413,0.00192498,0.00077
 494,0.00638141,-0.01096550,0.00220395,0.00000027,0.00000467,0.00000827
 ,-0.00047786,0.00051086,-0.00119115,0.00008500,-0.00008243,0.00000807,
 -0.00002040,0.00000852,0.00000565,-0.00107607,-0.00750052,0.00408078,0
 .05124916,-0.32312237,0.06593353,-0.00041841,0.00046921,-0.00121169,-0
 .05590463,0.33880040,-0.00000053,0.00001021,-0.00000139,0.00001138,-0.
 00000165,-0.00001644,-0.00000089,0.00000231,0.00000165,0.00000540,0.00
 000282,0.00000224,-0.00000027,0.00000996,-0.00000655,0.00001457,-0.000
 01636,0.00005414,-0.00000326,0.00000030,-0.00000121,-0.00000983,0.0000
 2259,-0.00007541,-0.00000377,0.00004372,0.00004914,0.00000566,0.000004
 94,-0.00000633,0.00000374,-0.00000313,0.00000539,0.00000236,-0.0000300
 2,0.00000895,-0.00000061,0.00000014,0.00000170,0.00000640,-0.00000051,
 0.00000113,-0.00000110,0.00000099,0.00001153,0.00000429,-0.00000119,-0
 .00000223,0.00000027,-0.00000153,-0.00000024,0.00014830,0.00011417,-0.
 00004945,-0.00009715,-0.00007789,-0.00039182,0.00000253,0.00002524,0.0
 0002229,-0.00003142,0.00021624,-0.00011863,-0.00061566,0.00014940,-0.0
 0019108,-0.00001763,0.00001458,0.00000489,-0.00002295,-0.00000312,-0.0
 0000919,-0.00000162,-0.00000020,0.00000072,0.00002695,-0.00001695,-0.0
 0003079,-0.00001896,-0.00001300,0.00000350,0.00004576,-0.00013332,0.00
 004539,-0.00000178,-0.00000768,0.00001876,-0.00000016,0.00000073,0.000
 00166,0.00000854,0.00000612,0.00000332,0.00000070,0.00000218,-0.000003
 09,0.00000049,-0.00000221,0.00000096,-0.00002902,-0.00001514,0.0000079
 2,-0.00000537,-0.00000068,-0.00000380,0.00003623,-0.00006450,0.0000409
 2,0.00000103,0.00000190,-0.00000991,0.00000116,-0.00000022,0.00000089,
 0.00000399,-0.00000317,0.00000109,0.00000064,-0.00000215,0.00000080,0.
 00000027,-0.00000079,-0.00000144,0.00502161,0.00282643,0.00505349,-0.0
 0054253,-0.00073436,-0.00194103,-0.00000139,0.00000277,0.00000305,-0.0
 0002167,-0.00000135,0.00000911,0.00001239,0.00000247,-0.00000453,-0.00
 000201,-0.00000031,0.00000049,-0.00000498,0.00000056,0.00000092,-0.000
 16909,-0.00026919,-0.00026479,-0.00000152,-0.00000223,0.00000054,0.000
 00087,0.00000392,0.00000291,0.00382589,0.00109572,0.00636450,-0.003266
 14,0.01343813,0.00180013,0.00000008,0.00000378,-0.00000007,-0.00160657
 ,-0.00135993,-0.00290480,0.00010534,-0.00010292,0.00002308,-0.00004637
 ,0.00002142,0.00001293,0.00214576,-0.00702070,0.00585291,-0.00597378,0
 .06588886,-0.05735714,-0.00162728,-0.00099781,-0.00314079,0.00269007,-
 0.07307118,0.04714606,0.00001302,0.00003507,0.00009395,-0.00005609,-0.
 00008710,-0.00012747,0.00023770,0.00006637,0.00003799,-0.00028734,-0.0
 0000672,-0.00014000,0.00015825,-0.00014544,0.00011234,0.00009942,0.000
 78292,0.00139575,-0.00003200,0.00004422,-0.00009127,-0.00704941,-0.001
 09838,-0.00255821,0.00037743,-0.00018140,0.00046461,-0.00005080,-0.000
 02463,-0.00005802,0.00009455,0.00005813,-0.00015664,-0.00005431,0.0000
 2880,-0.00005870,0.00004150,-0.00001996,0.00000260,-0.00006753,-0.0000
 0507,0.00002795,-0.00029113,-0.00016180,0.00010598,-0.00017153,-0.0001
 7912,0.00003591,-0.00001958,0.00003582,0.00003985,-0.00022963,0.000310
 88,0.00008713,0.02969556,-0.00424766,-0.01249276,0.00013354,0.00024482
 ,-0.00008770,0.00056279,-0.00016814,-0.00113255,0.00029364,-0.00009831
 ,0.00022560,0.00016211,0.00007377,-0.00020128,0.00000238,-0.00002980,-
 0.00004210,-0.00004638,-0.00004632,0.00000411,-0.00002875,0.00004477,0
 .00006405,-0.00114212,-0.00045419,-0.00026811,0.00332461,0.00257396,0.
 00329969,0.00009532,-0.00012206,-0.00004466,-0.00013989,0.00033068,-0.
 00012270,-0.00006156,0.00138592,-0.00010670,-0.00021515,0.00000307,0.0
 0002548,-0.00009995,-0.00000795,0.00008759,-0.00086790,-0.00047413,-0.
 00075247,-0.00000056,-0.00001630,-0.00002736,-0.07993166,-0.04177115,-
 0.15675727,0.00001667,0.00003187,0.00002710,-0.00067052,-0.00033677,0.
 00005751,-0.00127681,-0.00073211,0.00015555,0.00000028,0.00000669,0.00
 002058,-0.00035199,0.00013247,-0.00033339,0.00000411,-0.00022197,0.000
 05030,-0.00020397,0.00129808,-0.00003639,0.00031620,0.00017384,0.00072
 951,-0.00006233,-0.00004126,0.00004738,-0.00037786,-0.00099881,0.00017
 283,0.00006171,0.00000300,0.00002500,-0.00029209,0.00014818,0.00004805
 ,-0.00048578,-0.00019191,-0.00007401,0.00022886,-0.00003555,0.00003989
 ,-0.00000512,-0.00000339,0.00002714,-0.00030808,-0.00033083,0.00016199
 ,0.00007453,0.00000196,0.00000656,-0.00151517,0.00099376,-0.00093821,0
 .00002676,-0.00005310,-0.00003415,-0.00020830,-0.00001627,-0.00009024,
 0.00002774,-0.00022221,0.00018542,0.00000604,0.00008679,-0.00002304,0.
 00011800,-0.00024522,0.00003030,-0.00000977,-0.00000201,0.00000720,0.0
 0001012,-0.00001397,-0.00001058,0.06069535,-0.00000224,0.00006079,0.00
 005345,0.00007133,-0.00008506,-0.00005332,0.00022107,0.00005182,0.0000
 4177,-0.00026113,-0.00004326,-0.00023022,0.00023685,-0.00012032,0.0001
 0529,0.00048207,0.00211365,-0.00178496,0.00010252,-0.00004464,0.000090
 85,0.00010732,-0.00572120,-0.00041482,-0.00007425,-0.00016565,0.000075
 35,-0.00006400,-0.00001433,-0.00005994,0.00012873,0.00007538,-0.000007
 32,0.00003579,0.00003262,0.00004535,0.00004202,-0.00009908,-0.00007608
 ,-0.00010185,0.00002621,-0.00001279,-0.00023499,-0.00002368,0.00013125
 ,0.00003429,0.00018017,0.00032669,-0.00014812,0.00011930,-0.00000973,-
 0.00021454,0.00032466,0.00002321,-0.00453301,0.02012437,-0.02428773,0.
 00009660,0.00035695,0.00008828,0.00012521,0.00051270,0.00053793,-0.000
 29916,-0.00004526,0.00033098,-0.00054366,0.00006515,0.00018695,-0.0000
 7950,-0.00000454,-0.00002745,0.00017667,0.00007026,-0.00005853,-0.0000
 3286,-0.00000561,0.00010252,0.00002129,-0.00094122,-0.00061927,0.00426
 334,0.00061247,-0.00062639,0.00010509,-0.00009266,-0.00001867,-0.00004
 532,0.00056875,0.00049218,0.00041305,0.00046266,-0.00022756,-0.0000362
 5,-0.00002829,-0.00004237,-0.00024343,-0.00004117,0.00011022,-0.000372
 00,-0.00112761,-0.00087287,-0.00012303,-0.00003341,-0.00001106,-0.0425
 8253,-0.10615423,-0.22471171,0.00005479,-0.00012849,-0.00023651,0.0003
 2002,0.00049106,-0.00076513,-0.00005736,0.00003257,0.00085177,-0.00006
 466,0.00004891,-0.00001118,0.00019913,0.00012521,0.00011210,0.00046579
 ,-0.00061835,0.00007665,-0.00026769,0.00472479,0.00334812,0.00012212,0
 .00027324,0.00033168,-0.00002810,-0.00002811,0.00003322,0.00038198,-0.
 00010978,-0.00014593,0.00002234,-0.00007846,-0.00004239,-0.00017869,0.
 00008342,0.00001828,-0.00045125,0.00006664,0.00013121,0.00014393,-0.00
 005928,0.00005292,0.00000083,-0.00003715,0.00003438,0.00016247,-0.0007
 7904,0.00046279,-0.00006489,0.00024677,-0.00024517,-0.00043598,-0.0004
 4026,0.00024110,0.00003748,-0.00003680,-0.00001090,-0.00016679,-0.0002
 4587,0.00005974,-0.00001797,-0.00014750,0.00021328,-0.00018674,0.00004
 118,-0.00019337,0.00000204,-0.00043523,0.00010080,-0.00001073,-0.00005
 711,0.00000600,0.00001309,0.00000545,0.00003139,0.04365853,0.08645973,
 0.00002637,0.00015326,0.00014025,0.00007606,-0.00034090,-0.00010187,0.
 00064820,0.00027075,0.00024233,-0.00085155,-0.00013496,-0.00042840,0.0
 0096378,-0.00038358,0.00062571,0.00172524,0.00389915,0.00732325,0.0003
 2354,-0.00020809,0.00034233,0.00297392,-0.00095783,-0.00643425,0.00026
 348,-0.00010873,0.00033240,-0.00017348,-0.00010395,-0.00013520,0.00056
 229,0.00013003,-0.00003459,0.00002893,-0.00009500,0.00026373,0.0001748
 7,-0.00030862,-0.00013079,-0.00025804,0.00013351,-0.00005213,-0.001154
 92,-0.00039684,0.00067352,0.00034922,0.00062270,0.00107151,-0.00043589
 ,0.00038076,-0.00001432,-0.00129224,0.00120029,-0.00013386,-0.02248127
 ,-0.03456593,-0.05676706,0.00043187,0.00157137,0.00020797,-0.00005317,
 0.00090700,0.00242494,-0.00087415,-0.00060785,0.00091702,-0.00202008,-
 0.00019793,0.00106856,-0.00042965,-0.00010488,-0.00010403,0.00043980,0
 .00010449,-0.00010191,0.00031048,-0.00030429,0.00037389,-0.00118614,-0
 .00395369,-0.00085439,0.01436378,0.00386400,-0.00490386,0.00043694,-0.
 00035996,0.00006009,-0.00046292,0.00191427,0.00097171,0.00155890,0.001
 38433,-0.00078234,-0.00045670,-0.00002544,-0.00001645,-0.00079475,-0.0
 0011673,0.00039229,-0.00067964,-0.00049086,-0.00403576,-0.00041756,-0.
 00014426,-0.00004427,-0.15635822,-0.22211466,-0.90503347,0.00011168,-0
 .00020539,-0.00098790,-0.00067554,0.00078606,-0.00139447,0.00008388,0.
 00158408,-0.00075828,-0.00029107,0.00016219,-0.00001351,0.00057927,-0.
 00006132,0.00069871,0.00148174,-0.00167112,-0.00075512,-0.00100076,0.0
 0998661,0.00100923,0.00047206,0.00022725,0.00161138,-0.00032732,-0.000
 21679,0.00017687,0.00053638,-0.00195273,-0.00021157,0.00001552,-0.0003
 4756,-0.00007946,-0.00054250,0.00030653,-0.00000458,-0.00148757,-0.000
 83842,0.00015725,0.00066120,-0.00006521,0.00018700,0.00002091,-0.00013
 244,0.00011748,-0.00005223,-0.00287466,0.00025733,-0.00003392,0.000354
 55,-0.00006820,-0.00180777,-0.00183886,0.00113209,0.00014277,-0.000170
 31,-0.00003664,-0.00117916,-0.00039506,0.00032233,-0.00002591,-0.00074
 899,0.00088976,-0.00072367,0.00072263,0.00002564,0.00064278,-0.0015881
 2,0.00020024,-0.00013436,-0.00023376,-0.00003694,-0.00000777,-0.000052
 43,-0.00003042,0.16915102,0.24744744,0.96183016,-0.00005929,-0.0000217
 0,0.00003954,-0.00111091,-0.00059215,-0.00069092,-0.00049694,0.0001060
 1,0.00008827,0.00000580,0.00121771,0.00121435,0.00019984,-0.00014284,0
 .00003862,-0.20724439,0.16988549,0.19803006,0.00027369,0.00016034,-0.0
 0018188,0.00015674,0.00003483,-0.00025579,0.00059782,-0.00026099,-0.00
 018833,0.00001221,0.00008606,-0.00000629,0.00000145,-0.00001017,0.0000
 3023,0.00002127,-0.00011018,0.00007613,-0.00056890,0.00021507,-0.00048
 826,-0.00013629,0.00002565,-0.00006441,0.00019472,-0.00018933,-0.00008
 404,-0.00051758,-0.00034532,0.00061346,0.00008238,0.00010203,-0.000088
 46,-0.00006867,0.00001687,-0.00004550,0.00004397,-0.00288938,-0.001927
 45,0.00000018,0.00001172,0.00004912,-0.00067914,0.00010995,-0.00000537
 ,-0.00013568,-0.00016605,-0.00003896,-0.00019619,0.00004137,0.00003838
 ,-0.00003579,0.00001654,-0.00000413,0.00003332,0.00000163,-0.00000117,
 0.00008486,-0.00001365,0.00003568,-0.00002612,-0.00046127,0.00012720,0
 .00007866,-0.00120717,-0.00027758,0.00000409,0.00004692,0.00001674,-0.
 00017161,0.00018467,-0.00002216,0.00004777,-0.00003083,0.00002122,0.00
 003187,0.00000647,-0.00000016,-0.00003831,-0.00000493,0.00003581,0.000
 03222,0.00009704,0.00027029,-0.00003095,0.00000362,0.00002186,0.000594
 68,0.00103266,0.00149169,0.00002790,-0.00000923,-0.00007039,0.00076015
 ,0.00017906,0.00047879,-0.00065533,-0.00044171,0.00015161,-0.00006422,
 -0.00000322,-0.00000873,0.00007386,0.00010508,-0.00003762,0.00019109,-
 0.00029965,0.00007528,0.00023461,0.00018715,0.00081523,-0.00003260,-0.
 00005931,-0.00007794,-0.00002480,0.00003089,-0.00001278,-0.00003290,0.
 00004713,-0.00001893,0.00004351,0.00007334,-0.00008076,0.00002297,-0.0
 0000255,-0.00000155,0.00006085,0.00026941,0.00012708,-0.00002355,0.000
 01417,-0.00001331,0.00000745,0.00001110,-0.00000716,0.00019186,-0.0005
 4182,-0.00016900,-0.00004663,0.00011894,-0.00004622,0.00018233,0.00016
 791,-0.00019066,0.00001070,-0.00002207,0.00000141,0.00000407,0.0000144
 7,0.00002013,-0.00004228,0.00006034,-0.00008869,-0.00023842,0.00025377
 ,-0.00010557,0.00015023,-0.00024116,0.00003170,-0.00000878,-0.00002991
 ,0.00002736,-0.00000353,0.00001606,0.00000320,-0.00026711,-0.00032506,
 -0.00088698,0.20849782,-0.00000314,0.00000616,0.00004465,-0.00081956,-
 0.00003885,-0.00015618,-0.00013765,0.00001915,-0.00002619,0.00083721,0
 .00041862,0.00031268,0.00004479,-0.00016421,0.00005984,0.15736391,-0.1
 4968510,-0.14344109,0.00015816,0.00002591,-0.00003737,-0.00009164,-0.0
 0048877,-0.00063950,-0.00012163,0.00007455,-0.00006058,-0.00006337,0.0
 0002665,0.00001464,-0.00007895,-0.00006893,0.00003090,-0.00000483,0.00
 014150,-0.00005003,-0.00025021,0.00058225,-0.00029474,-0.00010411,-0.0
 0003266,-0.00004160,0.00011965,-0.00009132,-0.00004435,-0.00008505,-0.
 00024315,0.00028763,0.00019682,0.00007378,-0.00013357,0.00001947,0.000
 01432,0.00016304,0.01311759,-0.00830244,-0.00877085,0.00002421,-0.0002
 6876,-0.00004482,-0.00114272,-0.00035371,0.00001703,0.00022119,-0.0002
 0221,-0.00004693,-0.00011447,0.00009750,-0.00004256,0.00011101,0.00005
 586,0.00000693,0.00005077,0.00003290,-0.00000556,-0.00006687,0.0002354
 2,0.00006532,-0.00053366,-0.00042442,0.00009940,-0.00051184,-0.0006837
 3,-0.00049580,-0.00000278,0.00005332,0.00006319,-0.00003370,0.00012748
 ,0.00011956,0.00003768,-0.00000829,0.00000839,0.00000868,0.00000188,0.
 00001185,-0.00003736,-0.00003391,0.00001197,-0.00005964,0.00003872,0.0
 0017175,-0.00001021,0.00002053,0.00001816,0.00003010,0.00039674,-0.001
 61517,0.00004912,-0.00010045,0.00002628,-0.00021091,0.00066164,0.00071
 875,-0.00040686,-0.00044597,-0.00014369,0.00001632,-0.00000696,-0.0000
 1684,0.00028190,0.00019397,-0.00017655,-0.00008334,0.00043976,-0.00013
 801,-0.00180065,-0.00139990,0.00243126,-0.00001135,-0.00000027,-0.0000
 7189,0.00010633,0.00003732,-0.00003118,-0.00000848,0.00003153,-0.00000
 857,0.00000399,0.00000877,-0.00001957,-0.00000264,0.00000335,0.0000024
 1,0.00019693,0.00005225,0.00017767,-0.00003118,0.00001532,-0.00001393,
 -0.00002088,-0.00001410,0.00000726,0.00042356,-0.00059574,-0.00006148,
 -0.00012939,-0.00004750,-0.00008721,0.00013608,0.00009487,-0.00010423,
 -0.00001737,0.00002100,-0.00000315,0.00000975,-0.00003076,0.00003292,-
 0.00005448,0.00009202,-0.00003458,-0.00022905,-0.00013437,-0.00000875,
 -0.00002173,0.00002952,0.00001969,0.00002889,-0.00007186,0.00004215,0.
 00000074,0.00000778,0.00001141,0.00023669,-0.00036426,0.00130492,-0.16
 652981,0.16017022,-0.00002170,-0.00004415,-0.00003278,-0.00058304,0.00
 000546,0.00026258,0.00006713,-0.00003596,-0.00001653,0.00011890,-0.000
 02953,-0.00009768,0.00028170,-0.00022963,0.00004191,0.20370537,-0.1605
 6104,-0.19402051,0.00009029,0.00009865,-0.00013779,0.00001467,-0.00093
 503,-0.00110756,-0.00009337,0.00009891,-0.00021936,-0.00002807,0.00007
 391,-0.00001875,0.00003732,-0.00007517,0.00005976,0.00003456,0.0000128
 7,-0.00003927,-0.00040512,0.00004179,0.00003443,-0.00020953,-0.0000154
 7,-0.00001885,-0.00009807,0.00010193,0.00007552,-0.00028101,-0.0003196
 6,0.00037528,0.00016020,0.00005617,-0.00008397,-0.00013504,0.00002178,
 0.00005938,-0.00634833,0.00837381,0.00194338,0.00008261,-0.00010980,-0
 .00000270,-0.00040235,0.00002229,0.00002055,0.00012885,-0.00007303,-0.
 00003751,0.00000635,0.00000952,0.00003965,0.00005560,0.00000999,-0.000
 01808,-0.00009570,-0.00007216,0.00003209,-0.00003271,0.00011738,-0.000
 00828,0.00025072,0.00004671,0.00043000,0.00046526,-0.00035668,0.000543
 83,-0.00001085,0.00002062,0.00005102,-0.00015143,-0.00009439,-0.000385
 67,0.00009012,-0.00002891,-0.00001252,-0.00001134,0.00000212,0.0000003
 2,0.00005462,-0.00000964,0.00000225,0.00001102,0.00001085,0.00010301,-
 0.00001403,0.00000449,0.00000154,-0.00040981,0.00123957,0.00151119,0.0
 0005266,-0.00002150,-0.00001488,0.00037247,-0.00033079,-0.00034848,0.0
 0086317,0.00099439,-0.00041485,-0.00001533,-0.00001119,0.00000932,-0.0
 0025334,-0.00024278,0.00011872,0.00040303,-0.00010384,0.00000064,0.000
 83169,0.00187551,-0.00071394,0.00000251,-0.00002697,-0.00002963,0.0000
 1249,0.00003729,-0.00001029,-0.00005736,0.00003199,0.00003411,0.000045
 52,0.00007954,-0.00004052,0.00001252,-0.00000900,0.00000026,-0.0000838
 3,0.00007227,-0.00005196,-0.00001265,0.00000339,0.00000279,-0.00000327
 ,0.00001910,0.00000097,-0.00033787,0.00008757,-0.00007635,-0.00007101,
 0.00001181,0.00005673,-0.00014972,-0.00010869,0.00003714,-0.00000702,0
 .00002031,-0.00000771,0.00000900,0.00003017,-0.00001866,0.00002444,-0.
 00000984,0.00000136,0.00004757,0.00014808,-0.00012289,0.00006790,-0.00
 007919,-0.00000489,-0.00000309,0.00005791,0.00000284,-0.00000315,0.000
 00277,0.00000350,-0.00028790,-0.00049179,-0.00156094,-0.19778325,0.150
 58488,0.19381774\\-0.00000173,0.00000202,0.00000112,0.00000041,0.00000
 264,-0.00000158,-0.00000236,0.00000149,0.00000010,-0.00000237,0.000002
 27,0.00000281,0.00000079,0.00000138,0.00000290,0.00000098,0.00000423,0
 .00000230,-0.00000021,-0.00000350,-0.00000077,-0.00000166,0.00000517,0
 .00001072,0.00000052,0.00000292,0.00000363,-0.00000378,0.00000075,0.00
 000218,0.00000053,0.00000203,-0.00000175,0.00000414,-0.00000127,-0.000
 00525,0.00000029,-0.00000231,-0.00000223,-0.00000062,0.00000053,-0.000
 00009,0.00000075,0.00000281,-0.00000092,-0.00000014,0.00000513,0.00000
 720,-0.00000132,-0.00000262,0.00000127,0.00000008,0.00000066,-0.000000
 09,-0.00001014,-0.00001182,-0.00002461,0.00000064,-0.00000151,-0.00000
 147,0.00000899,-0.00000028,0.00000202,-0.00000408,0.00000759,-0.000001
 95,-0.00000814,0.00001023,0.00000375,0.00000212,0.00000163,-0.00000138
 ,0.00000171,-0.00000120,0.00000280,0.00000501,-0.00000239,-0.00000137,
 0.00001163,-0.00000979,0.00000511,-0.00000336,-0.00000073,0.00000048,-
 0.00000165,0.00000242,-0.00000118,-0.00000401,-0.00000080,-0.00000040,
 -0.00000079,0.00000009,0.00000024,0.00000013,0.00000160,-0.00000018,-0
 .00000102,-0.00000285,0.00000005,-0.00000111,-0.00000208,-0.00000075,0
 .00000083,-0.00000053,0.00000022,0.00000162,-0.00000005,0.00000691,0.0
 0000341,-0.00000687,-0.00000420,0.00000188,-0.00000134,0.00000101,-0.0
 0001045,-0.00000403,-0.00000110,-0.00000115,0.00000274,0.00000072,-0.0
 0000077,-0.00000218,0.00000285,-0.00000170,0.00000292,0.00000248,0.000
 00032,-0.00000699,0.00000654,0.00000194,0.00000324,0.00000154,0.000000
 61,0.00000053,-0.00000085,0.00000156,0.00000082,-0.00000010,0.00000091
 ,-0.00000106,0.00000026,0.00000106,0.00000185,-0.00000009,-0.00000176,
 0.00000453,0.00000031,-0.00000017,0.00000013,-0.00000022,-0.00000174,-
 0.00000150,-0.00000078,0.00000505,0.00000346,-0.00000434,0.00000224,0.
 00000041,-0.00000423,0.00000097,0.00000061,-0.00000037,0.00000139,0.00
 000150,-0.00000135,-0.00000062,-0.00000169,-0.00000152,0.00000100,-0.0
 0000178,-0.00000104,0.00000276,-0.00000417,-0.00000141,-0.00000105,0.0
 0000061,-0.00000035,0.00000129,-0.00000028,-0.00000159,0.00000211,-0.0
 0000042,-0.00000318,-0.00000101,-0.00000096,0.00000032,-0.00000072,-0.
 00000389,0.00000084\\\@


 NOTHING MAKES A PERSON MORE PRODUCTIVE THAN THE LAST MINUTE.
 Job cpu time:       1 days 19 hours  0 minutes 13.9 seconds.
 Elapsed time:       0 days  2 hours  9 minutes  7.3 seconds.
 File lengths (MBytes):  RWF=   4185 Int=      0 D2E=      0 Chk=     41 Scr=      1
 Normal termination of Gaussian 16 at Wed Jul 29 08:19:14 2020.
