 Entering Gaussian System, Link 0=g16
 Initial command:
 /cluster/chemistry/gaussian/g16/l1.exe "/scratch/js1212.758340/scratch/Gau-26403.inp" -scrdir="/scratch/js1212.758340/scratch/"
 Entering Link 1 = /cluster/chemistry/gaussian/g16/l1.exe PID=     26404.
  
 Copyright (c) 1988,1990,1992,1993,1995,1998,2003,2009,2016,
            Gaussian, Inc.  All Rights Reserved.
  
 This is part of the Gaussian(R) 16 program.  It is based on
 the Gaussian(R) 09 system (copyright 2009, Gaussian, Inc.),
 the Gaussian(R) 03 system (copyright 2003, Gaussian, Inc.),
 the Gaussian(R) 98 system (copyright 1998, Gaussian, Inc.),
 the Gaussian(R) 94 system (copyright 1995, Gaussian, Inc.),
 the Gaussian 92(TM) system (copyright 1992, Gaussian, Inc.),
 the Gaussian 90(TM) system (copyright 1990, Gaussian, Inc.),
 the Gaussian 88(TM) system (copyright 1988, Gaussian, Inc.),
 the Gaussian 86(TM) system (copyright 1986, Carnegie Mellon
 University), and the Gaussian 82(TM) system (copyright 1983,
 Carnegie Mellon University). Gaussian is a federally registered
 trademark of Gaussian, Inc.
  
 This software contains proprietary and confidential information,
 including trade secrets, belonging to Gaussian, Inc.
  
 This software is provided under written license and may be
 used, copied, transmitted, or stored only in accord with that
 written license.
  
 The following legend is applicable only to US Government
 contracts under FAR:
  
                    RESTRICTED RIGHTS LEGEND
  
 Use, reproduction and disclosure by the US Government is
 subject to restrictions as set forth in subparagraphs (a)
 and (c) of the Commercial Computer Software - Restricted
 Rights clause in FAR 52.227-19.
  
 Gaussian, Inc.
 340 Quinnipiac St., Bldg. 40, Wallingford CT 06492
  
  
 ---------------------------------------------------------------
 Warning -- This program may not be used in any manner that
 competes with the business of Gaussian, Inc. or will provide
 assistance to any competitor of Gaussian, Inc.  The licensee
 of this program is prohibited from giving any competitor of
 Gaussian, Inc. access to this program.  By using this program,
 the user acknowledges that Gaussian, Inc. is engaged in the
 business of creating and licensing software in the field of
 computational chemistry and represents and warrants to the
 licensee that it is not a competitor of Gaussian, Inc. and that
 it will not use this program in any manner prohibited above.
 ---------------------------------------------------------------
  

 Cite this work as:
 Gaussian 16, Revision A.03,
 M. J. Frisch, G. W. Trucks, H. B. Schlegel, G. E. Scuseria, 
 M. A. Robb, J. R. Cheeseman, G. Scalmani, V. Barone, 
 G. A. Petersson, H. Nakatsuji, X. Li, M. Caricato, A. V. Marenich, 
 J. Bloino, B. G. Janesko, R. Gomperts, B. Mennucci, H. P. Hratchian, 
 J. V. Ortiz, A. F. Izmaylov, J. L. Sonnenberg, D. Williams-Young, 
 F. Ding, F. Lipparini, F. Egidi, J. Goings, B. Peng, A. Petrone, 
 T. Henderson, D. Ranasinghe, V. G. Zakrzewski, J. Gao, N. Rega, 
 G. Zheng, W. Liang, M. Hada, M. Ehara, K. Toyota, R. Fukuda, 
 J. Hasegawa, M. Ishida, T. Nakajima, Y. Honda, O. Kitao, H. Nakai, 
 T. Vreven, K. Throssell, J. A. Montgomery, Jr., J. E. Peralta, 
 F. Ogliaro, M. J. Bearpark, J. J. Heyd, E. N. Brothers, K. N. Kudin, 
 V. N. Staroverov, T. A. Keith, R. Kobayashi, J. Normand, 
 K. Raghavachari, A. P. Rendell, J. C. Burant, S. S. Iyengar, 
 J. Tomasi, M. Cossi, J. M. Millam, M. Klene, C. Adamo, R. Cammi, 
 J. W. Ochterski, R. L. Martin, K. Morokuma, O. Farkas, 
 J. B. Foresman, and D. J. Fox, Gaussian, Inc., Wallingford CT, 2016.
 
 ******************************************
 Gaussian 16:  ES64L-G16RevA.03 25-Dec-2016
                29-Jul-2020 
 ******************************************
 %rwf=/scratch/js1212.758340/G-Cis-Mono-D-0-GP-TD-SMD.rwf
 %nosave
 %nprocshared=20
 Will use up to   20 processors via shared memory.
 %mem=3000MB
 %oldchk=/data/js1212/200728_g16/G-Cis-Mono-D-0-GPOF.chk
 %chk=/scratch/js1212.758340/G-Cis-Mono-D-0-GP-TD-SMD.chk
 Copying data from "/data/js1212/200728_g16/G-Cis-Mono-D-0-GPOF.chk" to current chk file "/scratch/js1212.758340/G-Cis-Mono-D-0-GP-TD-SMD.chk"
 IOpt=  2 FromEx=T IUOpen= 4 IOptOp= 5 NList=   0 IFRang= 0 IUIn= 4 IUOut= 2.
 ----------------------------------------------------------------------
 # genecp pbe1pbe EmpiricalDispersion=GD3BJ scrf=(SMD,solvent=water) td
 =nstates=25 geom=allcheck
 ----------------------------------------------------------------------
 1/29=7,38=1,172=1/1;
 2/12=2,40=1/2;
 3/5=7,11=9,14=-4,16=1,17=8,25=1,30=1,70=32201,72=1,74=-13,124=41/1,2,3,8;
 4//1;
 5/5=2,38=5,53=1/2;
 8/6=1,10=1,108=25/1;
 9/41=25,42=1,70=2/14;
 6/7=2,8=2,9=2,10=2/1;
 99/5=1,9=1/99;
 Structure from the checkpoint file:  "/scratch/js1212.758340/G-Cis-Mono-D-0-GP-TD-SMD.chk"
 -------------------
 Title Card Required
 -------------------
 Charge =  0 Multiplicity = 2
 Redundant internal coordinates found in file.  (old form).
 H,0,-3.6905370104,-3.2718121937,1.8378939994
 C,0,-3.3750603622,-2.6854541367,0.9618846844
 H,0,-4.1113387957,-2.8691398049,0.1634869095
 H,0,-2.3746109988,-3.0338762746,0.6565966198
 H,0,1.4247838842,-0.6991579822,2.7360524122
 O,0,-0.3111875734,-2.5739048286,0.7056376432
 H,0,4.291650212,-1.7399433226,0.7433414845
 O,0,-0.5290884211,-0.1466908447,2.0086686983
 C,0,-3.286645055,-1.2291937711,1.3636540336
 H,0,2.8035005633,0.0863967164,3.5642871307
 H,0,-4.274928125,-0.8341722834,1.6735422082
 C,0,2.469677188,-0.3772575096,2.6204087601
 H,0,2.805032851,-2.7019124416,0.5425041296
 H,0,3.1047836814,-1.2537143263,2.4394891715
 H,0,-2.5916800383,-1.1179422106,2.209608011
 C,0,3.6133707732,-2.1845477548,0.0031756433
 H,0,4.1866877437,-2.9404108573,-0.5587684928
 H,0,-2.3442066369,0.9994248313,1.8101545235
 Ru,0,-0.41404302,-0.6093825467,0.1075359764
 H,0,0.6843492306,1.5905802524,2.0610910937
 N,0,-2.7243793087,-0.3571728703,0.3070679105
 C,0,-2.7561181144,1.0347856027,0.7858412475
 C,0,2.5734204257,0.6673985977,1.5035791596
 H,0,2.1253648269,2.2725304057,2.8586166721
 H,0,4.7806497876,0.2266488535,-0.9097432633
 C,0,1.7312962676,1.885503926,1.9041121239
 C,0,3.0563050066,-1.1514469836,-0.9795605487
 P,0,1.7907048977,-0.0607076035,-0.0685787618
 H,0,-3.780793841,1.4411316161,0.8306626656
 C,0,4.1897841787,-0.3521368809,-1.6279532531
 H,0,-3.2075426933,-1.4945356447,-1.3689820507
 H,0,-5.455570938,-0.9493970981,-0.3428232244
 H,0,4.8750659516,-1.0557198651,-2.1298116335
 C,0,-3.4176240391,-0.486030416,-0.9902782315
 H,0,4.336736522,1.6253379544,2.2618596968
 C,0,-0.5704193252,-1.0986499252,-1.6911688577
 C,0,4.0209146233,1.1249557655,1.3311708479
 H,0,1.5506960494,-2.5741163322,-1.6879240889
 C,0,2.326695817,-1.909174758,-2.0890535612
 H,0,4.7166441883,0.2920994008,1.1615940841
 H,0,3.0603555765,-2.5292436982,-2.6301298277
 C,0,-1.856281482,1.935364931,-0.0054941633
 N,0,-0.6718093197,1.3877288534,-0.3429114705
 C,0,-4.9188937826,-0.2373850401,-0.9864212744
 H,0,1.7953862868,2.7037168585,1.1702746451
 H,0,-2.9260195994,0.2128660184,-1.6847885851
 H,0,3.8149060543,0.3355544782,-2.4010114787
 H,0,-5.1827773848,0.7808598541,-0.6630532963
 C,0,1.5870046894,1.4121293425,-1.2174407122
 H,0,-5.3031142377,-0.3619123948,-2.0099828958
 H,0,4.1410594861,1.85497739,0.5151764443
 C,0,0.2945019553,2.1208632007,-0.9339160368
 C,0,-2.1372767347,3.263338482,-0.3040780224
 H,0,1.8558095528,-1.2415668482,-2.8243634354
 H,0,-3.1062404601,3.6857758984,-0.036004528
 H,0,1.5391875809,0.9753408009,-2.2301458637
 H,0,2.4337011065,2.1146010147,-1.2038502189
 C,0,0.0696657727,3.4615280464,-1.2386096679
 C,0,-1.1607305597,4.034232328,-0.9303609289
 H,0,0.8582110662,4.0464527196,-1.7131678465
 H,0,-1.3554184276,5.080575409,-1.1717472413
 O,0,-0.7719678527,-1.3864457527,-2.7975280831
 H,0,0.28790034,-3.0674143473,0.1340329141
 Recover connectivity data from disk.
                           ----------------------------
                           !    Current Parameters    !
                           ! (Angstroms and Degrees)  !
 --------------------------                            --------------------------
 ! Name  Definition              Value                                          !
 --------------------------------------------------------------------------------
 ! R1    R(1,2)                  1.1003                                         !
 ! R2    R(2,3)                  1.1015                                         !
 ! R3    R(2,4)                  1.1025                                         !
 ! R4    R(2,9)                  1.5133                                         !
 ! R5    R(5,12)                 1.0995                                         !
 ! R6    R(6,19)                 2.0561                                         !
 ! R7    R(6,63)                 0.9639                                         !
 ! R8    R(7,16)                 1.098                                          !
 ! R9    R(8,19)                 1.96                                           !
 ! R10   R(9,11)                 1.1085                                         !
 ! R11   R(9,15)                 1.1005                                         !
 ! R12   R(9,21)                 1.4809                                         !
 ! R13   R(10,12)                1.1033                                         !
 ! R14   R(12,14)                1.0974                                         !
 ! R15   R(12,23)                1.5328                                         !
 ! R16   R(13,16)                1.1009                                         !
 ! R17   R(16,17)                1.1026                                         !
 ! R18   R(16,27)                1.5308                                         !
 ! R19   R(18,22)                1.1046                                         !
 ! R20   R(19,28)                2.2788                                         !
 ! R21   R(19,36)                1.8706                                         !
 ! R22   R(19,43)                2.0634                                         !
 ! R23   R(20,26)                1.099                                          !
 ! R24   R(21,22)                1.4723                                         !
 ! R25   R(21,34)                1.4766                                         !
 ! R26   R(22,29)                1.1032                                         !
 ! R27   R(22,42)                1.499                                          !
 ! R28   R(23,26)                1.5341                                         !
 ! R29   R(23,28)                1.9012                                         !
 ! R30   R(23,37)                1.5278                                         !
 ! R31   R(24,26)                1.1028                                         !
 ! R32   R(25,30)                1.0954                                         !
 ! R33   R(26,45)                1.101                                          !
 ! R34   R(27,28)                1.903                                          !
 ! R35   R(27,30)                1.531                                          !
 ! R36   R(27,39)                1.5289                                         !
 ! R37   R(28,49)                1.879                                          !
 ! R38   R(30,33)                1.103                                          !
 ! R39   R(30,47)                1.1005                                         !
 ! R40   R(31,34)                1.0976                                         !
 ! R41   R(32,44)                1.0996                                         !
 ! R42   R(34,44)                1.5217                                         !
 ! R43   R(34,46)                1.1011                                         !
 ! R44   R(35,37)                1.1029                                         !
 ! R45   R(36,62)                1.1608                                         !
 ! R46   R(37,40)                1.0984                                         !
 ! R47   R(37,51)                1.1015                                         !
 ! R48   R(38,39)                1.0978                                         !
 ! R49   R(39,41)                1.1025                                         !
 ! R50   R(39,54)                1.0991                                         !
 ! R51   R(42,43)                1.3479                                         !
 ! R52   R(42,53)                1.3898                                         !
 ! R53   R(43,52)                1.3493                                         !
 ! R54   R(44,48)                1.1005                                         !
 ! R55   R(44,50)                1.1004                                         !
 ! R56   R(49,52)                1.5011                                         !
 ! R57   R(49,56)                1.1039                                         !
 ! R58   R(49,57)                1.1002                                         !
 ! R59   R(52,58)                1.3931                                         !
 ! R60   R(53,55)                1.0905                                         !
 ! R61   R(53,59)                1.3929                                         !
 ! R62   R(58,59)                1.3917                                         !
 ! R63   R(58,60)                1.0905                                         !
 ! R64   R(59,61)                1.0913                                         !
 ! A1    A(1,2,3)              107.2504                                         !
 ! A2    A(1,2,4)              108.1928                                         !
 ! A3    A(1,2,9)              108.5541                                         !
 ! A4    A(3,2,4)              110.6804                                         !
 ! A5    A(3,2,9)              113.0777                                         !
 ! A6    A(4,2,9)              108.943                                          !
 ! A7    A(19,6,63)            110.3502                                         !
 ! A8    A(2,9,11)             111.4117                                         !
 ! A9    A(2,9,15)             109.7725                                         !
 ! A10   A(2,9,21)             113.5429                                         !
 ! A11   A(11,9,15)            108.1863                                         !
 ! A12   A(11,9,21)            109.1552                                         !
 ! A13   A(15,9,21)            104.4286                                         !
 ! A14   A(5,12,10)            108.6994                                         !
 ! A15   A(5,12,14)            109.4829                                         !
 ! A16   A(5,12,23)            109.908                                          !
 ! A17   A(10,12,14)           107.5515                                         !
 ! A18   A(10,12,23)           108.4484                                         !
 ! A19   A(14,12,23)           112.6461                                         !
 ! A20   A(7,16,13)            108.2784                                         !
 ! A21   A(7,16,17)            107.4536                                         !
 ! A22   A(7,16,27)            112.5994                                         !
 ! A23   A(13,16,17)           108.0169                                         !
 ! A24   A(13,16,27)           111.3745                                         !
 ! A25   A(17,16,27)           108.9454                                         !
 ! A26   A(6,19,8)              86.9238                                         !
 ! A27   A(6,19,28)            101.7785                                         !
 ! A28   A(6,19,36)             91.9476                                         !
 ! A29   A(8,19,28)             94.2962                                         !
 ! A30   A(8,19,43)             88.6208                                         !
 ! A31   A(28,19,36)            93.9877                                         !
 ! A32   A(28,19,43)            82.5857                                         !
 ! A33   A(36,19,43)            91.8794                                         !
 ! A34   A(9,21,22)            108.4523                                         !
 ! A35   A(9,21,34)            113.4056                                         !
 ! A36   A(22,21,34)           110.9829                                         !
 ! A37   A(18,22,21)           105.2624                                         !
 ! A38   A(18,22,29)           108.6916                                         !
 ! A39   A(18,22,42)           106.5542                                         !
 ! A40   A(21,22,29)           112.4238                                         !
 ! A41   A(21,22,42)           112.5436                                         !
 ! A42   A(29,22,42)           110.9602                                         !
 ! A43   A(12,23,26)           108.287                                          !
 ! A44   A(12,23,28)           108.2797                                         !
 ! A45   A(12,23,37)           110.5151                                         !
 ! A46   A(26,23,28)           107.0977                                         !
 ! A47   A(26,23,37)           108.1643                                         !
 ! A48   A(28,23,37)           114.2945                                         !
 ! A49   A(20,26,23)           110.3142                                         !
 ! A50   A(20,26,24)           108.1177                                         !
 ! A51   A(20,26,45)           110.4943                                         !
 ! A52   A(23,26,24)           107.9683                                         !
 ! A53   A(23,26,45)           112.5897                                         !
 ! A54   A(24,26,45)           107.1752                                         !
 ! A55   A(16,27,28)           108.7546                                         !
 ! A56   A(16,27,30)           110.7808                                         !
 ! A57   A(16,27,39)           107.7618                                         !
 ! A58   A(28,27,30)           113.3199                                         !
 ! A59   A(28,27,39)           108.3058                                         !
 ! A60   A(30,27,39)           107.7411                                         !
 ! A61   A(19,28,23)           115.2534                                         !
 ! A62   A(19,28,27)           122.8498                                         !
 ! A63   A(19,28,49)            97.5329                                         !
 ! A64   A(23,28,27)           109.9727                                         !
 ! A65   A(23,28,49)           104.4804                                         !
 ! A66   A(27,28,49)           103.2194                                         !
 ! A67   A(25,30,27)           113.4228                                         !
 ! A68   A(25,30,33)           107.4723                                         !
 ! A69   A(25,30,47)           108.309                                          !
 ! A70   A(27,30,33)           108.6415                                         !
 ! A71   A(27,30,47)           111.8107                                         !
 ! A72   A(33,30,47)           106.8965                                         !
 ! A73   A(21,34,31)           107.0665                                         !
 ! A74   A(21,34,44)           116.5318                                         !
 ! A75   A(21,34,46)           106.8082                                         !
 ! A76   A(31,34,44)           109.8677                                         !
 ! A77   A(31,34,46)           106.2679                                         !
 ! A78   A(44,34,46)           109.776                                          !
 ! A79   A(23,37,35)           108.177                                          !
 ! A80   A(23,37,40)           112.9819                                         !
 ! A81   A(23,37,51)           112.6702                                         !
 ! A82   A(35,37,40)           107.0333                                         !
 ! A83   A(35,37,51)           107.0514                                         !
 ! A84   A(40,37,51)           108.6078                                         !
 ! A85   A(27,39,38)           111.8607                                         !
 ! A86   A(27,39,41)           108.5013                                         !
 ! A87   A(27,39,54)           112.8858                                         !
 ! A88   A(38,39,41)           108.0016                                         !
 ! A89   A(38,39,54)           108.0292                                         !
 ! A90   A(41,39,54)           107.3601                                         !
 ! A91   A(22,42,43)           114.556                                          !
 ! A92   A(22,42,53)           124.4787                                         !
 ! A93   A(43,42,53)           120.8043                                         !
 ! A94   A(19,43,42)           116.6391                                         !
 ! A95   A(19,43,52)           122.1436                                         !
 ! A96   A(42,43,52)           121.2145                                         !
 ! A97   A(32,44,34)           112.1587                                         !
 ! A98   A(32,44,48)           108.0656                                         !
 ! A99   A(32,44,50)           107.5019                                         !
 ! A100  A(34,44,48)           112.8614                                         !
 ! A101  A(34,44,50)           108.8827                                         !
 ! A102  A(48,44,50)           107.1168                                         !
 ! A103  A(28,49,52)           110.3619                                         !
 ! A104  A(28,49,56)           104.8005                                         !
 ! A105  A(28,49,57)           114.1721                                         !
 ! A106  A(52,49,56)           108.8318                                         !
 ! A107  A(52,49,57)           111.0286                                         !
 ! A108  A(56,49,57)           107.2947                                         !
 ! A109  A(43,52,49)           116.2856                                         !
 ! A110  A(43,52,58)           120.2063                                         !
 ! A111  A(49,52,58)           123.5061                                         !
 ! A112  A(42,53,55)           119.7997                                         !
 ! A113  A(42,53,59)           118.9251                                         !
 ! A114  A(55,53,59)           121.2711                                         !
 ! A115  A(52,58,59)           119.3574                                         !
 ! A116  A(52,58,60)           119.6482                                         !
 ! A117  A(59,58,60)           120.9944                                         !
 ! A118  A(53,59,58)           119.4499                                         !
 ! A119  A(53,59,61)           120.3322                                         !
 ! A120  A(58,59,61)           120.2166                                         !
 ! A121  L(6,19,43,8,-1)       175.5446                                         !
 ! A122  L(8,19,36,6,-1)       178.8714                                         !
 ! A123  L(19,36,62,3,-1)      175.8485                                         !
 ! A124  L(6,19,43,8,-2)       184.0512                                         !
 ! A125  L(8,19,36,6,-2)       171.7652                                         !
 ! A126  L(19,36,62,3,-2)      176.7342                                         !
 ! D1    D(1,2,9,11)           -62.726                                          !
 ! D2    D(1,2,9,15)            57.0897                                         !
 ! D3    D(1,2,9,21)           173.542                                          !
 ! D4    D(3,2,9,11)            56.1573                                         !
 ! D5    D(3,2,9,15)           175.9731                                         !
 ! D6    D(3,2,9,21)           -67.5747                                         !
 ! D7    D(4,2,9,11)           179.6679                                         !
 ! D8    D(4,2,9,15)           -60.5164                                         !
 ! D9    D(4,2,9,21)            55.9359                                         !
 ! D10   D(63,6,19,8)         -143.3537                                         !
 ! D11   D(63,6,19,28)         -49.6023                                         !
 ! D12   D(63,6,19,36)          44.8811                                         !
 ! D13   D(63,6,43,42)         152.1364                                         !
 ! D14   D(63,6,43,52)         -29.8015                                         !
 ! D15   D(2,9,21,22)          177.0168                                         !
 ! D16   D(2,9,21,34)           53.2526                                         !
 ! D17   D(11,9,21,22)          52.0641                                         !
 ! D18   D(11,9,21,34)         -71.7001                                         !
 ! D19   D(15,9,21,22)         -63.4373                                         !
 ! D20   D(15,9,21,34)         172.7986                                         !
 ! D21   D(5,12,23,26)          61.679                                          !
 ! D22   D(5,12,23,28)         -54.1227                                         !
 ! D23   D(5,12,23,37)         179.987                                          !
 ! D24   D(10,12,23,26)        -57.0237                                         !
 ! D25   D(10,12,23,28)       -172.8253                                         !
 ! D26   D(10,12,23,37)         61.2844                                         !
 ! D27   D(14,12,23,26)       -175.9467                                         !
 ! D28   D(14,12,23,28)         68.2517                                         !
 ! D29   D(14,12,23,37)        -57.6386                                         !
 ! D30   D(7,16,27,28)         -72.1811                                         !
 ! D31   D(7,16,27,30)          52.9887                                         !
 ! D32   D(7,16,27,39)         170.6207                                         !
 ! D33   D(13,16,27,28)         49.6707                                         !
 ! D34   D(13,16,27,30)        174.8404                                         !
 ! D35   D(13,16,27,39)        -67.5275                                         !
 ! D36   D(17,16,27,28)        168.7168                                         !
 ! D37   D(17,16,27,30)        -66.1134                                         !
 ! D38   D(17,16,27,39)         51.5186                                         !
 ! D39   D(6,19,28,23)         -91.1447                                         !
 ! D40   D(6,19,28,27)          47.8042                                         !
 ! D41   D(6,19,28,49)         158.902                                          !
 ! D42   D(8,19,28,23)          -3.3975                                         !
 ! D43   D(8,19,28,27)         135.5514                                         !
 ! D44   D(8,19,28,49)        -113.3508                                         !
 ! D45   D(36,19,28,23)        176.0274                                         !
 ! D46   D(36,19,28,27)        -45.0237                                         !
 ! D47   D(36,19,28,49)         66.0741                                         !
 ! D48   D(43,19,28,23)         84.6475                                         !
 ! D49   D(43,19,28,27)       -136.4036                                         !
 ! D50   D(43,19,28,49)        -25.3059                                         !
 ! D51   D(8,19,43,42)         -64.8675                                         !
 ! D52   D(8,19,43,52)         114.5304                                         !
 ! D53   D(28,19,43,42)       -159.3813                                         !
 ! D54   D(28,19,43,52)         20.0166                                         !
 ! D55   D(36,19,43,42)        106.8404                                         !
 ! D56   D(36,19,43,52)        -73.7617                                         !
 ! D57   D(9,21,22,18)          47.1623                                         !
 ! D58   D(9,21,22,29)         -70.9994                                         !
 ! D59   D(9,21,22,42)         162.8229                                         !
 ! D60   D(34,21,22,18)        172.3656                                         !
 ! D61   D(34,21,22,29)         54.2039                                         !
 ! D62   D(34,21,22,42)        -71.9738                                         !
 ! D63   D(9,21,34,31)         -67.2826                                         !
 ! D64   D(9,21,34,44)          56.1275                                         !
 ! D65   D(9,21,34,46)         179.2113                                         !
 ! D66   D(22,21,34,31)        170.3465                                         !
 ! D67   D(22,21,34,44)        -66.2435                                         !
 ! D68   D(22,21,34,46)         56.8403                                         !
 ! D69   D(18,22,42,43)         74.9099                                         !
 ! D70   D(18,22,42,53)       -100.4934                                         !
 ! D71   D(21,22,42,43)        -39.9708                                         !
 ! D72   D(21,22,42,53)        144.6258                                         !
 ! D73   D(29,22,42,43)       -166.9333                                         !
 ! D74   D(29,22,42,53)         17.6634                                         !
 ! D75   D(12,23,26,20)        -58.8658                                         !
 ! D76   D(12,23,26,24)         59.0811                                         !
 ! D77   D(12,23,26,45)        177.1907                                         !
 ! D78   D(28,23,26,20)         57.7025                                         !
 ! D79   D(28,23,26,24)        175.6494                                         !
 ! D80   D(28,23,26,45)        -66.2411                                         !
 ! D81   D(37,23,26,20)       -178.6594                                         !
 ! D82   D(37,23,26,24)        -60.7125                                         !
 ! D83   D(37,23,26,45)         57.3971                                         !
 ! D84   D(12,23,28,19)         60.7436                                         !
 ! D85   D(12,23,28,27)        -83.3103                                         !
 ! D86   D(12,23,28,49)        166.4985                                         !
 ! D87   D(26,23,28,19)        -55.8295                                         !
 ! D88   D(26,23,28,27)        160.1166                                         !
 ! D89   D(26,23,28,49)         49.9254                                         !
 ! D90   D(37,23,28,19)       -175.6111                                         !
 ! D91   D(37,23,28,27)         40.335                                          !
 ! D92   D(37,23,28,49)        -69.8563                                         !
 ! D93   D(12,23,37,35)        -63.6039                                         !
 ! D94   D(12,23,37,40)         54.6997                                         !
 ! D95   D(12,23,37,51)        178.2567                                         !
 ! D96   D(26,23,37,35)         54.7791                                         !
 ! D97   D(26,23,37,40)        173.0828                                         !
 ! D98   D(26,23,37,51)        -63.3603                                         !
 ! D99   D(28,23,37,35)        173.9612                                         !
 ! D100  D(28,23,37,40)        -67.7352                                         !
 ! D101  D(28,23,37,51)         55.8218                                         !
 ! D102  D(16,27,28,19)        -87.5192                                         !
 ! D103  D(16,27,28,23)         53.2845                                         !
 ! D104  D(16,27,28,49)        164.3027                                         !
 ! D105  D(30,27,28,19)        148.812                                          !
 ! D106  D(30,27,28,23)        -70.3842                                         !
 ! D107  D(30,27,28,49)         40.634                                          !
 ! D108  D(39,27,28,19)         29.3317                                         !
 ! D109  D(39,27,28,23)        170.1355                                         !
 ! D110  D(39,27,28,49)        -78.8463                                         !
 ! D111  D(16,27,30,25)        -62.084                                          !
 ! D112  D(16,27,30,33)         57.3529                                         !
 ! D113  D(16,27,30,47)        175.0883                                         !
 ! D114  D(28,27,30,25)         60.468                                          !
 ! D115  D(28,27,30,33)        179.905                                          !
 ! D116  D(28,27,30,47)        -62.3597                                         !
 ! D117  D(39,27,30,25)       -179.7287                                         !
 ! D118  D(39,27,30,33)        -60.2918                                         !
 ! D119  D(39,27,30,47)         57.4436                                         !
 ! D120  D(16,27,39,38)         55.5729                                         !
 ! D121  D(16,27,39,41)        -63.4649                                         !
 ! D122  D(16,27,39,54)        177.6684                                         !
 ! D123  D(28,27,39,38)        -61.9162                                         !
 ! D124  D(28,27,39,41)        179.046                                          !
 ! D125  D(28,27,39,54)         60.1793                                         !
 ! D126  D(30,27,39,38)        175.1528                                         !
 ! D127  D(30,27,39,41)         56.1151                                         !
 ! D128  D(30,27,39,54)        -62.7516                                         !
 ! D129  D(19,28,49,52)         32.9871                                         !
 ! D130  D(19,28,49,56)        -84.0254                                         !
 ! D131  D(19,28,49,57)        158.869                                          !
 ! D132  D(23,28,49,52)        -85.6073                                         !
 ! D133  D(23,28,49,56)        157.3802                                         !
 ! D134  D(23,28,49,57)         40.2746                                         !
 ! D135  D(27,28,49,52)        159.3656                                         !
 ! D136  D(27,28,49,56)         42.3531                                         !
 ! D137  D(27,28,49,57)        -74.7525                                         !
 ! D138  D(21,34,44,32)        -61.3662                                         !
 ! D139  D(21,34,44,48)         60.9836                                         !
 ! D140  D(21,34,44,50)        179.7859                                         !
 ! D141  D(31,34,44,32)         60.5854                                         !
 ! D142  D(31,34,44,48)       -177.0648                                         !
 ! D143  D(31,34,44,50)        -58.2625                                         !
 ! D144  D(46,34,44,32)        177.1017                                         !
 ! D145  D(46,34,44,48)        -60.5485                                         !
 ! D146  D(46,34,44,50)         58.2538                                         !
 ! D147  D(22,42,43,19)          6.319                                          !
 ! D148  D(22,42,43,52)       -173.085                                          !
 ! D149  D(53,42,43,19)       -178.0922                                         !
 ! D150  D(53,42,43,52)          2.5038                                         !
 ! D151  D(22,42,53,55)         -5.7243                                         !
 ! D152  D(22,42,53,59)        173.5471                                         !
 ! D153  D(43,42,53,55)        179.144                                          !
 ! D154  D(43,42,53,59)         -1.5846                                         !
 ! D155  D(19,43,52,49)         -1.4722                                         !
 ! D156  D(19,43,52,58)        179.0124                                         !
 ! D157  D(42,43,52,49)        177.8985                                         !
 ! D158  D(42,43,52,58)         -1.6169                                         !
 ! D159  D(28,49,52,43)        -23.6171                                         !
 ! D160  D(28,49,52,58)        155.8807                                         !
 ! D161  D(56,49,52,43)         90.8688                                         !
 ! D162  D(56,49,52,58)        -89.6335                                         !
 ! D163  D(57,49,52,43)       -151.2511                                         !
 ! D164  D(57,49,52,58)         28.2467                                         !
 ! D165  D(43,52,58,59)         -0.1505                                         !
 ! D166  D(43,52,58,60)        179.7924                                         !
 ! D167  D(49,52,58,59)       -179.6294                                         !
 ! D168  D(49,52,58,60)          0.3135                                         !
 ! D169  D(42,53,59,58)         -0.1619                                         !
 ! D170  D(42,53,59,61)       -179.7559                                         !
 ! D171  D(55,53,59,58)        179.0984                                         !
 ! D172  D(55,53,59,61)         -0.4956                                         !
 ! D173  D(52,58,59,53)          1.0075                                         !
 ! D174  D(52,58,59,61)       -179.3981                                         !
 ! D175  D(60,58,59,53)       -178.9346                                         !
 ! D176  D(60,58,59,61)          0.6598                                         !
 --------------------------------------------------------------------------------
 Stoichiometry    C20H36N2O3PRu(2)
 Framework group  C1[X(C20H36N2O3PRu)]
 Deg. of freedom   183
 Full point group                 C1      NOp   1
 Largest Abelian subgroup         C1      NOp   1
 Largest concise Abelian subgroup C1      NOp   1
                         Standard orientation:                         
 ---------------------------------------------------------------------
 Center     Atomic      Atomic             Coordinates (Angstroms)
 Number     Number       Type             X           Y           Z
 ---------------------------------------------------------------------
      1          1           0       -3.597129   -3.370113    1.857318
      2          6           0       -3.306863   -2.758150    0.990150
      3          1           0       -4.054199   -2.935199    0.200575
      4          1           0       -2.306511   -3.082635    0.659236
      5          1           0        1.491095   -0.734730    2.727079
      6          8           0       -0.250256   -2.589751    0.683197
      7          1           0        4.338422   -1.680604    0.660414
      8          8           0       -0.484129   -0.197818    2.047271
      9          6           0       -3.234874   -1.310478    1.424884
     10          1           0        2.871474    0.053903    3.549599
     11          1           0       -4.223735   -0.939319    1.761293
     12          6           0        2.528412   -0.392895    2.600916
     13          1           0        2.864221   -2.662131    0.462699
     14          1           0        3.174291   -1.254187    2.388117
     15          1           0       -2.526818   -1.207638    2.260989
     16          6           0        3.654329   -2.118871   -0.078180
     17          1           0        4.229687   -2.851682   -0.667887
     18          1           0       -2.320812    0.922358    1.907819
     19         44           0       -0.395547   -0.613679    0.133940
     20          1           0        0.701775    1.557646    2.119869
     21          7           0       -2.705735   -0.404625    0.379714
     22          6           0       -2.751451    0.974965    0.891984
     23          6           0        2.595292    0.679326    1.507643
     24          1           0        2.145564    2.244474    2.908138
     25          1           0        4.765958    0.332183   -0.953647
     26          6           0        1.740844    1.873522    1.951710
     27          6           0        3.063172   -1.072327   -1.026160
     28         15           0        1.796539   -0.024484   -0.067510
     29          1           0       -3.781606    1.363076    0.964347
     30          6           0        4.171818   -0.239275   -1.675016
     31          1           0       -3.200253   -1.510105   -1.314261
     32          1           0       -5.438144   -1.026658   -0.236331
     33          1           0        4.859334   -0.919381   -2.205373
     34          6           0       -3.419839   -0.514416   -0.908036
     35          1           0        4.356122    1.648303    2.257633
     36          6           0       -0.576050   -1.063021   -1.672904
     37          6           0        4.031885    1.164782    1.320944
     38          1           0        1.568387   -2.502737   -1.741821
     39          6           0        2.326243   -1.815750   -2.140482
     40          1           0        4.737867    0.347811    1.119463
     41          1           0        3.060072   -2.410651   -2.708895
     42          6           0       -1.880569    1.908728    0.106738
     43          7           0       -0.693597    1.388922   -0.264248
     44          6           0       -4.924629   -0.290889   -0.872058
     45          1           0        1.778581    2.709725    1.236561
     46          1           0       -2.952080    0.208692   -1.594179
     47          1           0        3.772126    0.460096   -2.424816
     48          1           0       -5.199146    0.714945   -0.519974
     49          6           0        1.548564    1.471390   -1.177238
     50          1           0       -5.324984   -0.397662   -1.891433
     51          1           0        4.125622    1.915694    0.520595
     52          6           0        0.250024    2.151700   -0.854399
     53          6           0       -2.188302    3.238511   -0.155184
     54          1           0        1.831570   -1.138937   -2.851353
     55          1           0       -3.159039    3.638379    0.139745
     56          1           0        1.489762    1.057814   -2.199070
     57          1           0        2.383888    2.187307   -1.161700
     58          6           0       -0.001881    3.495245   -1.123106
     59          6           0       -1.235690    4.040032   -0.779877
     60          1           0        0.768502    4.104184   -1.597288
     61          1           0       -1.451562    5.088388   -0.992840
     62          8           0       -0.792621   -1.328014   -2.782118
     63          1           0        0.346447   -3.059661    0.089632
 ---------------------------------------------------------------------
 Rotational constants (GHZ):           0.2503079           0.1550244           0.1330150
 General basis read from cards:  (5D, 7F)
 ======================================================================================================
                                       Pseudopotential Parameters
 ======================================================================================================
  Center     Atomic      Valence      Angular      Power
  Number     Number     Electrons     Momentum     of R      Exponent        Coefficient   SO-Coeffient
 ======================================================================================================
    1          1
                                   No pseudopotential on this center.
    2          6
                                   No pseudopotential on this center.
    3          1
                                   No pseudopotential on this center.
    4          1
                                   No pseudopotential on this center.
    5          1
                                   No pseudopotential on this center.
    6          8
                                   No pseudopotential on this center.
    7          1
                                   No pseudopotential on this center.
    8          8
                                   No pseudopotential on this center.
    9          6
                                   No pseudopotential on this center.
   10          1
                                   No pseudopotential on this center.
   11          1
                                   No pseudopotential on this center.
   12          6
                                   No pseudopotential on this center.
   13          1
                                   No pseudopotential on this center.
   14          1
                                   No pseudopotential on this center.
   15          1
                                   No pseudopotential on this center.
   16          6
                                   No pseudopotential on this center.
   17          1
                                   No pseudopotential on this center.
   18          1
                                   No pseudopotential on this center.
   19         44           16
                                      G and up 
                                                     2        1.0000000        0.00000000    0.00000000
                                      S - G
                                                     2       11.1052690      209.82297100    0.00000000
                                                     2        5.4147450       30.65472600    0.00000000
                                      P - G
                                                     2        9.7712710      146.33618200    0.00000000
                                                     2        5.0739910       24.12787700    0.00000000
                                      D - G
                                                     2        7.6714230       67.51589700    0.00000000
                                                     2        4.1365650        9.87010400    0.00000000
                                      F - G
                                                     2       11.3600000      -28.34061600    0.00000000
                                                     2        5.6800000       -4.94462900    0.00000000
   20          1
                                   No pseudopotential on this center.
   21          7
                                   No pseudopotential on this center.
   22          6
                                   No pseudopotential on this center.
   23          6
                                   No pseudopotential on this center.
   24          1
                                   No pseudopotential on this center.
   25          1
                                   No pseudopotential on this center.
   26          6
                                   No pseudopotential on this center.
   27          6
                                   No pseudopotential on this center.
   28         15
                                   No pseudopotential on this center.
   29          1
                                   No pseudopotential on this center.
   30          6
                                   No pseudopotential on this center.
   31          1
                                   No pseudopotential on this center.
   32          1
                                   No pseudopotential on this center.
   33          1
                                   No pseudopotential on this center.
   34          6
                                   No pseudopotential on this center.
   35          1
                                   No pseudopotential on this center.
   36          6
                                   No pseudopotential on this center.
   37          6
                                   No pseudopotential on this center.
   38          1
                                   No pseudopotential on this center.
   39          6
                                   No pseudopotential on this center.
   40          1
                                   No pseudopotential on this center.
   41          1
                                   No pseudopotential on this center.
   42          6
                                   No pseudopotential on this center.
   43          7
                                   No pseudopotential on this center.
   44          6
                                   No pseudopotential on this center.
   45          1
                                   No pseudopotential on this center.
   46          1
                                   No pseudopotential on this center.
   47          1
                                   No pseudopotential on this center.
   48          1
                                   No pseudopotential on this center.
   49          6
                                   No pseudopotential on this center.
   50          1
                                   No pseudopotential on this center.
   51          1
                                   No pseudopotential on this center.
   52          6
                                   No pseudopotential on this center.
   53          6
                                   No pseudopotential on this center.
   54          1
                                   No pseudopotential on this center.
   55          1
                                   No pseudopotential on this center.
   56          1
                                   No pseudopotential on this center.
   57          1
                                   No pseudopotential on this center.
   58          6
                                   No pseudopotential on this center.
   59          6
                                   No pseudopotential on this center.
   60          1
                                   No pseudopotential on this center.
   61          1
                                   No pseudopotential on this center.
   62          8
                                   No pseudopotential on this center.
   63          1
                                   No pseudopotential on this center.
 ======================================================================================================
 There are   613 symmetry adapted cartesian basis functions of A   symmetry.
 There are   584 symmetry adapted basis functions of A   symmetry.
   584 basis functions,  1213 primitive gaussians,   613 cartesian basis functions
   113 alpha electrons      112 beta electrons
       nuclear repulsion energy      3467.6653939068 Hartrees.
 NAtoms=   63 NActive=   63 NUniq=   63 SFac= 1.00D+00 NAtFMM=   60 NAOKFM=T Big=T
 Integral buffers will be    131072 words long.
 Regular integral format.
 Two-electron integral symmetry is turned on.
 Nuclear repulsion after empirical dispersion term =     3467.5698292923 Hartrees.
 ------------------------------------------------------------------------------
 Polarizable Continuum Model (PCM)
 =================================
 Model                : PCM.
 Atomic radii         : SMD-Coulomb.
 Polarization charges : Total charges.
 Charge compensation  : None.
 Solution method      : On-the-fly selection.
 Cavity type          : VdW (van der Waals Surface) (Alpha=1.000).
 Cavity algorithm     : GePol (No added spheres)
                        Default sphere list used, NSphG=   63.
                        Lebedev-Laikov grids with approx.  5.0 points / Ang**2.
                        Smoothing algorithm: York/Karplus (Gamma=1.0000).
                        Polarization charges: spherical gaussians, with
                                              point-specific exponents (IZeta= 3).
                        Self-potential: point-specific (ISelfS= 7).
                        Self-field    : sphere-specific E.n sum rule (ISelfD= 2).
 Solvent              : Water, Eps=  78.355300 Eps(inf)=   1.777849
 ------------------------------------------------------------------------------
 ------------------------------------------------------------------------------
 Atomic radii for non-electrostatic terms: SMD-CDS.
 ------------------------------------------------------------------------------
 Nuclear repulsion after PCM non-electrostatic terms =     3467.5865477419 Hartrees.
 One-electron integrals computed using PRISM.
   1 Symmetry operations used in ECPInt.
 ECPInt:  NShTT=   39340 NPrTT=  276277 LenC2=   36533 LenP2D=  139900.
 LDataN:  DoStor=T MaxTD1= 6 Len=  172
 Number of processors reduced to  16 by ecpmxn.
 NBasis=   584 RedAO= T EigKep=  4.36D-04  NBF=   584
 NBsUse=   584 1.00D-06 EigRej= -1.00D+00 NBFU=   584
 Defaulting to unpruned grid for atomic number  44.
 ExpMin= 1.60D-02 ExpMax= 9.48D+04 ExpMxC= 3.24D+03 IAcc=3 IRadAn=         5 AccDes= 0.00D+00
 Harris functional with IExCor= 1009 and IRadAn=       5 diagonalized for initial guess.
 HarFok:  IExCor= 1009 AccDes= 0.00D+00 IRadAn=         5 IDoV= 1 UseB2=F ITyADJ=14
 ICtDFT=  3500011 ScaDFX=  1.000000  1.000000  1.000000  1.000000
 Defaulting to unpruned grid for atomic number  44.
 FoFCou: FMM=F IPFlag=           0 FMFlag=      100000 FMFlg1=        2001
         NFxFlg=           0 DoJE=T BraDBF=F KetDBF=T FulRan=T
         wScrn=  0.000000 ICntrl=       500 IOpCl=  0 I1Cent=   200000004 NGrid=           0
         NMat0=    1 NMatS0=      1 NMatT0=    0 NMatD0=    1 NMtDS0=    0 NMtDT0=    0
 Petite list used in FoFCou.
 Initial guess <Sx>= 0.0000 <Sy>= 0.0000 <Sz>= 0.5000 <S**2>= 0.7500 S= 0.5000
 Requested convergence on RMS density matrix=1.00D-08 within 128 cycles.
 Requested convergence on MAX density matrix=1.00D-06.
 Requested convergence on             energy=1.00D-06.
 No special actions if energy rises.
 Defaulting to unpruned grid for atomic number  44.
 Defaulting to unpruned grid for atomic number  44.
 Defaulting to unpruned grid for atomic number  44.
 Defaulting to unpruned grid for atomic number  44.
 Defaulting to unpruned grid for atomic number  44.
 Defaulting to unpruned grid for atomic number  44.
 Defaulting to unpruned grid for atomic number  44.
 Defaulting to unpruned grid for atomic number  44.
 Defaulting to unpruned grid for atomic number  44.
 Defaulting to unpruned grid for atomic number  44.
 Defaulting to unpruned grid for atomic number  44.
 Defaulting to unpruned grid for atomic number  44.
 Defaulting to unpruned grid for atomic number  44.
 Defaulting to unpruned grid for atomic number  44.
 Defaulting to unpruned grid for atomic number  44.
 Defaulting to unpruned grid for atomic number  44.
 Defaulting to unpruned grid for atomic number  44.
 Defaulting to unpruned grid for atomic number  44.
 Defaulting to unpruned grid for atomic number  44.
 Defaulting to unpruned grid for atomic number  44.
 Inv3:  Mode=1 IEnd=    45817392.
 Iteration    1 A*A^-1 deviation from unit magnitude is 8.44D-15 for   1188.
 Iteration    1 A*A^-1 deviation from orthogonality  is 4.77D-15 for   1985    515.
 Iteration    1 A^-1*A deviation from unit magnitude is 8.44D-15 for   3908.
 Iteration    1 A^-1*A deviation from orthogonality  is 4.80D-12 for   2630   2502.
 EnCoef did   100 forward-backward iterations
 EnCoef did   100 forward-backward iterations
 Restarting incremental Fock formation.
 Error on total polarization charges =  0.07143
 SCF Done:  E(UPBE1PBE) =  -1554.02576561     A.U. after   33 cycles
            NFock= 33  Conv=0.16D-08     -V/T= 2.0467
 <Sx>= 0.0000 <Sy>= 0.0000 <Sz>= 0.5000 <S**2>= 0.7578 S= 0.5039
 <L.S>= 0.000000000000E+00
 SMD-CDS (non-electrostatic) energy       (kcal/mol) =      10.49
 (included in total energy above)
 Annihilation of the first spin contaminant:
 S**2 before annihilation     0.7578,   after     0.7500
 DoSCS=F DFT=T ScalE2(SS,OS)=  1.000000  1.000000
 ExpMin= 1.60D-02 ExpMax= 9.48D+04 ExpMxC= 3.24D+03 IAcc=3 IRadAn=         5 AccDes= 0.00D+00
 HarFok:  IExCor=  205 AccDes= 0.00D+00 IRadAn=         5 IDoV=-2 UseB2=F ITyADJ=14
 ICtDFT= 12500011 ScaDFX=  1.000000  1.000000  1.000000  1.000000
 Defaulting to unpruned grid for atomic number  44.
 GSVD:  LWork=       -1428 too small for GESVD, short by        6290 words or        6290 for optimal perf.
 Range of M.O.s used for correlation:    35   584
 NBasis=   584 NAE=   113 NBE=   112 NFC=    34 NFV=     0
 NROrb=    550 NOA=    79 NOB=    78 NVA=   471 NVB=   472
 NEqPCM:  Using non-equilibrium solvation (IEInf=1, Eps=  78.3553, EpsInf=   1.7778)
 Inv3:  Mode=1 IEnd=    45817392.
 Iteration    1 A*A^-1 deviation from unit magnitude is 1.07D-14 for   1179.
 Iteration    1 A*A^-1 deviation from orthogonality  is 5.36D-15 for   3561   1302.
 Iteration    1 A^-1*A deviation from unit magnitude is 9.99D-15 for   1179.
 Iteration    1 A^-1*A deviation from orthogonality  is 3.81D-15 for   2340   1106.
 Orbital symmetries:
 Alpha Orbitals:
       Occupied  (A) (A) (A) (A) (A) (A) (A) (A) (A) (A) (A) (A)
                 (A) (A) (A) (A) (A) (A) (A) (A) (A) (A) (A) (A)
                 (A) (A) (A) (A) (A) (A) (A) (A) (A) (A) (A) (A)
                 (A) (A) (A) (A) (A) (A) (A) (A) (A) (A) (A) (A)
                 (A) (A) (A) (A) (A) (A) (A) (A) (A) (A) (A) (A)
                 (A) (A) (A) (A) (A) (A) (A) (A) (A) (A) (A) (A)
                 (A) (A) (A) (A) (A) (A) (A) (A) (A) (A) (A) (A)
                 (A) (A) (A) (A) (A) (A) (A) (A) (A) (A) (A) (A)
                 (A) (A) (A) (A) (A) (A) (A) (A) (A) (A) (A) (A)
                 (A) (A) (A) (A) (A)
       Virtual   (A) (A) (A) (A) (A) (A) (A) (A) (A) (A) (A) (A)
                 (A) (A) (A) (A) (A) (A) (A) (A) (A) (A) (A) (A)
                 (A) (A) (A) (A) (A) (A) (A) (A) (A) (A) (A) (A)
                 (A) (A) (A) (A) (A) (A) (A) (A) (A) (A) (A) (A)
                 (A) (A) (A) (A) (A) (A) (A) (A) (A) (A) (A) (A)
                 (A) (A) (A) (A) (A) (A) (A) (A) (A) (A) (A) (A)
                 (A) (A) (A) (A) (A) (A) (A) (A) (A) (A) (A) (A)
                 (A) (A) (A) (A) (A) (A) (A) (A) (A) (A) (A) (A)
                 (A) (A) (A) (A) (A) (A) (A) (A) (A) (A) (A) (A)
                 (A) (A) (A) (A) (A) (A) (A) (A) (A) (A) (A) (A)
                 (A) (A) (A) (A) (A) (A) (A) (A) (A) (A) (A) (A)
                 (A) (A) (A) (A) (A) (A) (A) (A) (A) (A) (A) (A)
                 (A) (A) (A) (A) (A) (A) (A) (A) (A) (A) (A) (A)
                 (A) (A) (A) (A) (A) (A) (A) (A) (A) (A) (A) (A)
                 (A) (A) (A) (A) (A) (A) (A) (A) (A) (A) (A) (A)
                 (A) (A) (A) (A) (A) (A) (A) (A) (A) (A) (A) (A)
                 (A) (A) (A) (A) (A) (A) (A) (A) (A) (A) (A) (A)
                 (A) (A) (A) (A) (A) (A) (A) (A) (A) (A) (A) (A)
                 (A) (A) (A) (A) (A) (A) (A) (A) (A) (A) (A) (A)
                 (A) (A) (A) (A) (A) (A) (A) (A) (A) (A) (A) (A)
                 (A) (A) (A) (A) (A) (A) (A) (A) (A) (A) (A) (A)
                 (A) (A) (A) (A) (A) (A) (A) (A) (A) (A) (A) (A)
                 (A) (A) (A) (A) (A) (A) (A) (A) (A) (A) (A) (A)
                 (A) (A) (A) (A) (A) (A) (A) (A) (A) (A) (A) (A)
                 (A) (A) (A) (A) (A) (A) (A) (A) (A) (A) (A) (A)
                 (A) (A) (A) (A) (A) (A) (A) (A) (A) (A) (A) (A)
                 (A) (A) (A) (A) (A) (A) (A) (A) (A) (A) (A) (A)
                 (A) (A) (A) (A) (A) (A) (A) (A) (A) (A) (A) (A)
                 (A) (A) (A) (A) (A) (A) (A) (A) (A) (A) (A) (A)
                 (A) (A) (A) (A) (A) (A) (A) (A) (A) (A) (A) (A)
                 (A) (A) (A) (A) (A) (A) (A) (A) (A) (A) (A) (A)
                 (A) (A) (A) (A) (A) (A) (A) (A) (A) (A) (A) (A)
                 (A) (A) (A) (A) (A) (A) (A) (A) (A) (A) (A) (A)
                 (A) (A) (A) (A) (A) (A) (A) (A) (A) (A) (A) (A)
                 (A) (A) (A) (A) (A) (A) (A) (A) (A) (A) (A) (A)
                 (A) (A) (A) (A) (A) (A) (A) (A) (A) (A) (A) (A)
                 (A) (A) (A) (A) (A) (A) (A) (A) (A) (A) (A) (A)
                 (A) (A) (A) (A) (A) (A) (A) (A) (A) (A) (A) (A)
                 (A) (A) (A) (A) (A) (A) (A) (A) (A) (A) (A) (A)
                 (A) (A) (A)
 Beta  Orbitals:
       Occupied  (A) (A) (A) (A) (A) (A) (A) (A) (A) (A) (A) (A)
                 (A) (A) (A) (A) (A) (A) (A) (A) (A) (A) (A) (A)
                 (A) (A) (A) (A) (A) (A) (A) (A) (A) (A) (A) (A)
                 (A) (A) (A) (A) (A) (A) (A) (A) (A) (A) (A) (A)
                 (A) (A) (A) (A) (A) (A) (A) (A) (A) (A) (A) (A)
                 (A) (A) (A) (A) (A) (A) (A) (A) (A) (A) (A) (A)
                 (A) (A) (A) (A) (A) (A) (A) (A) (A) (A) (A) (A)
                 (A) (A) (A) (A) (A) (A) (A) (A) (A) (A) (A) (A)
                 (A) (A) (A) (A) (A) (A) (A) (A) (A) (A) (A) (A)
                 (A) (A) (A) (A)
       Virtual   (A) (A) (A) (A) (A) (A) (A) (A) (A) (A) (A) (A)
                 (A) (A) (A) (A) (A) (A) (A) (A) (A) (A) (A) (A)
                 (A) (A) (A) (A) (A) (A) (A) (A) (A) (A) (A) (A)
                 (A) (A) (A) (A) (A) (A) (A) (A) (A) (A) (A) (A)
                 (A) (A) (A) (A) (A) (A) (A) (A) (A) (A) (A) (A)
                 (A) (A) (A) (A) (A) (A) (A) (A) (A) (A) (A) (A)
                 (A) (A) (A) (A) (A) (A) (A) (A) (A) (A) (A) (A)
                 (A) (A) (A) (A) (A) (A) (A) (A) (A) (A) (A) (A)
                 (A) (A) (A) (A) (A) (A) (A) (A) (A) (A) (A) (A)
                 (A) (A) (A) (A) (A) (A) (A) (A) (A) (A) (A) (A)
                 (A) (A) (A) (A) (A) (A) (A) (A) (A) (A) (A) (A)
                 (A) (A) (A) (A) (A) (A) (A) (A) (A) (A) (A) (A)
                 (A) (A) (A) (A) (A) (A) (A) (A) (A) (A) (A) (A)
                 (A) (A) (A) (A) (A) (A) (A) (A) (A) (A) (A) (A)
                 (A) (A) (A) (A) (A) (A) (A) (A) (A) (A) (A) (A)
                 (A) (A) (A) (A) (A) (A) (A) (A) (A) (A) (A) (A)
                 (A) (A) (A) (A) (A) (A) (A) (A) (A) (A) (A) (A)
                 (A) (A) (A) (A) (A) (A) (A) (A) (A) (A) (A) (A)
                 (A) (A) (A) (A) (A) (A) (A) (A) (A) (A) (A) (A)
                 (A) (A) (A) (A) (A) (A) (A) (A) (A) (A) (A) (A)
                 (A) (A) (A) (A) (A) (A) (A) (A) (A) (A) (A) (A)
                 (A) (A) (A) (A) (A) (A) (A) (A) (A) (A) (A) (A)
                 (A) (A) (A) (A) (A) (A) (A) (A) (A) (A) (A) (A)
                 (A) (A) (A) (A) (A) (A) (A) (A) (A) (A) (A) (A)
                 (A) (A) (A) (A) (A) (A) (A) (A) (A) (A) (A) (A)
                 (A) (A) (A) (A) (A) (A) (A) (A) (A) (A) (A) (A)
                 (A) (A) (A) (A) (A) (A) (A) (A) (A) (A) (A) (A)
                 (A) (A) (A) (A) (A) (A) (A) (A) (A) (A) (A) (A)
                 (A) (A) (A) (A) (A) (A) (A) (A) (A) (A) (A) (A)
                 (A) (A) (A) (A) (A) (A) (A) (A) (A) (A) (A) (A)
                 (A) (A) (A) (A) (A) (A) (A) (A) (A) (A) (A) (A)
                 (A) (A) (A) (A) (A) (A) (A) (A) (A) (A) (A) (A)
                 (A) (A) (A) (A) (A) (A) (A) (A) (A) (A) (A) (A)
                 (A) (A) (A) (A) (A) (A) (A) (A) (A) (A) (A) (A)
                 (A) (A) (A) (A) (A) (A) (A) (A) (A) (A) (A) (A)
                 (A) (A) (A) (A) (A) (A) (A) (A) (A) (A) (A) (A)
                 (A) (A) (A) (A) (A) (A) (A) (A) (A) (A) (A) (A)
                 (A) (A) (A) (A) (A) (A) (A) (A) (A) (A) (A) (A)
                 (A) (A) (A) (A) (A) (A) (A) (A) (A) (A) (A) (A)
                 (A) (A) (A) (A)
   100 initial guesses have been made.
 Convergence on wavefunction:    0.001000000000000
 Iteration     1 Dimension   100 NMult     0 NNew    100
 CISAX will form    10 AO SS matrices at one time.
 Defaulting to unpruned grid for atomic number  44.
 Defaulting to unpruned grid for atomic number  44.
 Defaulting to unpruned grid for atomic number  44.
 Defaulting to unpruned grid for atomic number  44.
 Defaulting to unpruned grid for atomic number  44.
 Defaulting to unpruned grid for atomic number  44.
 Defaulting to unpruned grid for atomic number  44.
 Defaulting to unpruned grid for atomic number  44.
 Defaulting to unpruned grid for atomic number  44.
 Defaulting to unpruned grid for atomic number  44.
 Defaulting to unpruned grid for atomic number  44.
 Defaulting to unpruned grid for atomic number  44.
 Defaulting to unpruned grid for atomic number  44.
 Defaulting to unpruned grid for atomic number  44.
 Defaulting to unpruned grid for atomic number  44.
 Defaulting to unpruned grid for atomic number  44.
 Defaulting to unpruned grid for atomic number  44.
 Defaulting to unpruned grid for atomic number  44.
 Defaulting to unpruned grid for atomic number  44.
 Defaulting to unpruned grid for atomic number  44.
 New state      3 was old state      6
 New state      4 was old state     18
 New state      5 was old state     15
 New state      6 was old state      3
 New state      7 was old state      5
 New state      8 was old state     21
 New state      9 was old state      4
 New state     10 was old state      7
 New state     11 was old state     16
 New state     12 was old state      9
 New state     13 was old state     20
 New state     14 was old state     11
 New state     15 was old state     25
 New state     16 was old state     10
 New state     17 was old state     43
 New state     18 was old state     12
 New state     19 was old state     13
 New state     20 was old state     14
 New state     21 was old state     24
 New state     22 was old state     17
 New state     23 was old state     22
 New state     24 was old state     33
 New state     25 was old state     37
 Iteration     2 Dimension   150 NMult   100 NNew     50
 New state      7 was old state      8
 New state      8 was old state      7
 New state     12 was old state     17
 New state     14 was old state     12
 New state     15 was old state     14
 New state     16 was old state     15
 New state     17 was old state     20
 New state     18 was old state     16
 New state     20 was old state     22
 New state     21 was old state     18
 New state     22 was old state     21
 Iteration     3 Dimension   200 NMult   150 NNew     50
 New state     18 was old state     19
 New state     19 was old state     18
 No map to state     25
 Iteration     4 Dimension   250 NMult   200 NNew     50
 Iteration     5 Dimension   294 NMult   250 NNew     44
 Iteration     6 Dimension   314 NMult   294 NNew     20
 Iteration     7 Dimension   322 NMult   314 NNew      8
 ***********************************************************************
 Excited states from <AA,BB:AA,BB> singles matrix:
 ***********************************************************************
 
 ExtSpn:  IState=     1 X2= 1.103 Y2= 0.103 X2-Y2-1=-9.99D-16
          S2Grnd=  0.758 Ra=  0.000 Rb=  0.010 T= -0.007 S2Ext=  0.003 S2=  0.761
 ExtSpn:  IState=     2 X2= 1.002 Y2= 0.002 X2-Y2-1=-3.33D-16
          S2Grnd=  0.758 Ra=  0.003 Rb=  0.071 T=  0.013 S2Ext=  0.086 S2=  0.844
 ExtSpn:  IState=     3 X2= 1.008 Y2= 0.008 X2-Y2-1=-2.22D-16
          S2Grnd=  0.758 Ra=  0.003 Rb=  0.015 T=  0.002 S2Ext=  0.021 S2=  0.778
 ExtSpn:  IState=     4 X2= 1.003 Y2= 0.003 X2-Y2-1=-1.78D-15
          S2Grnd=  0.758 Ra=  0.016 Rb=  0.123 T=  0.072 S2Ext=  0.211 S2=  0.968
 ExtSpn:  IState=     5 X2= 1.007 Y2= 0.007 X2-Y2-1=-1.11D-16
          S2Grnd=  0.758 Ra=  0.582 Rb=  0.370 T=  0.923 S2Ext=  1.875 S2=  2.633
 ExtSpn:  IState=     6 X2= 1.017 Y2= 0.017 X2-Y2-1=-4.44D-16
          S2Grnd=  0.758 Ra=  0.400 Rb=  0.591 T=  0.954 S2Ext=  1.945 S2=  2.703
 ExtSpn:  IState=     7 X2= 1.007 Y2= 0.007 X2-Y2-1=-9.99D-16
          S2Grnd=  0.758 Ra=  0.086 Rb=  0.145 T= -0.091 S2Ext=  0.139 S2=  0.897
 ExtSpn:  IState=     8 X2= 1.005 Y2= 0.005 X2-Y2-1=-1.11D-15
          S2Grnd=  0.758 Ra=  0.488 Rb=  0.409 T=  0.866 S2Ext=  1.763 S2=  2.521
 ExtSpn:  IState=     9 X2= 1.002 Y2= 0.002 X2-Y2-1=-2.22D-16
          S2Grnd=  0.758 Ra=  0.366 Rb=  0.598 T= -0.891 S2Ext=  0.073 S2=  0.831
 ExtSpn:  IState=    10 X2= 1.001 Y2= 0.001 X2-Y2-1= 0.00D+00
          S2Grnd=  0.758 Ra=  0.226 Rb=  0.724 T=  0.481 S2Ext=  1.431 S2=  2.188
 ExtSpn:  IState=    11 X2= 1.002 Y2= 0.002 X2-Y2-1= 8.88D-16
          S2Grnd=  0.758 Ra=  0.516 Rb=  0.421 T= -0.912 S2Ext=  0.025 S2=  0.782
 ExtSpn:  IState=    12 X2= 1.005 Y2= 0.005 X2-Y2-1=-8.88D-16
          S2Grnd=  0.758 Ra=  0.714 Rb=  0.241 T= -0.320 S2Ext=  0.636 S2=  1.393
 ExtSpn:  IState=    13 X2= 1.014 Y2= 0.014 X2-Y2-1=-5.55D-16
          S2Grnd=  0.758 Ra=  0.457 Rb=  0.531 T=  0.882 S2Ext=  1.870 S2=  2.627
 ExtSpn:  IState=    14 X2= 1.002 Y2= 0.002 X2-Y2-1=-2.22D-16
          S2Grnd=  0.758 Ra=  0.458 Rb=  0.476 T= -0.874 S2Ext=  0.060 S2=  0.818
 ExtSpn:  IState=    15 X2= 1.002 Y2= 0.002 X2-Y2-1= 1.78D-15
          S2Grnd=  0.758 Ra=  0.036 Rb=  0.104 T= -0.015 S2Ext=  0.126 S2=  0.884
 ExtSpn:  IState=    16 X2= 1.005 Y2= 0.005 X2-Y2-1=-4.44D-16
          S2Grnd=  0.758 Ra=  0.252 Rb=  0.738 T=  0.739 S2Ext=  1.729 S2=  2.486
 ExtSpn:  IState=    17 X2= 1.021 Y2= 0.021 X2-Y2-1= 2.22D-16
          S2Grnd=  0.758 Ra=  0.449 Rb=  0.436 T=  0.847 S2Ext=  1.731 S2=  2.489
 ExtSpn:  IState=    18 X2= 1.007 Y2= 0.007 X2-Y2-1= 1.11D-15
          S2Grnd=  0.758 Ra=  0.490 Rb=  0.450 T=  0.907 S2Ext=  1.847 S2=  2.605
 ExtSpn:  IState=    19 X2= 1.001 Y2= 0.001 X2-Y2-1=-1.11D-16
          S2Grnd=  0.758 Ra=  0.733 Rb=  0.239 T= -0.608 S2Ext=  0.364 S2=  1.122
 ExtSpn:  IState=    20 X2= 1.004 Y2= 0.004 X2-Y2-1=-8.88D-16
          S2Grnd=  0.758 Ra=  0.540 Rb=  0.090 T=  0.343 S2Ext=  0.972 S2=  1.730
 ExtSpn:  IState=    21 X2= 1.001 Y2= 0.001 X2-Y2-1= 4.44D-16
          S2Grnd=  0.758 Ra=  0.052 Rb=  0.916 T=  0.193 S2Ext=  1.161 S2=  1.919
 ExtSpn:  IState=    22 X2= 1.003 Y2= 0.003 X2-Y2-1=-1.33D-15
          S2Grnd=  0.758 Ra=  0.371 Rb=  0.419 T=  0.426 S2Ext=  1.216 S2=  1.974
 ExtSpn:  IState=    23 X2= 1.006 Y2= 0.006 X2-Y2-1= 4.44D-16
          S2Grnd=  0.758 Ra=  0.398 Rb=  0.350 T=  0.564 S2Ext=  1.312 S2=  2.070
 ExtSpn:  IState=    24 X2= 1.003 Y2= 0.003 X2-Y2-1=-5.55D-16
          S2Grnd=  0.758 Ra=  0.654 Rb=  0.128 T=  0.131 S2Ext=  0.913 S2=  1.671
 ExtSpn:  IState=    25 X2= 1.004 Y2= 0.004 X2-Y2-1=-8.88D-16
          S2Grnd=  0.758 Ra=  0.544 Rb=  0.246 T=  0.594 S2Ext=  1.384 S2=  2.142
 Ground to excited state transition densities written to RWF  633
 Ground to excited state transition electric dipole moments (Au):
       state          X           Y           Z        Dip. S.      Osc.
         1        -0.0150      0.0385      0.0321      0.0027      0.0000
         2         0.0035     -0.0495      0.1079      0.0141      0.0005
         3        -0.2763      0.0319      0.0451      0.0794      0.0041
         4        -0.0217     -0.0711     -0.0830      0.0124      0.0008
         5        -0.0824      0.0212     -0.0114      0.0074      0.0005
         6         0.0345     -0.0930     -0.0233      0.0104      0.0007
         7         0.0741      0.2243     -0.5840      0.3969      0.0302
         8        -0.0345     -0.0512      0.0587      0.0073      0.0006
         9        -0.4486      0.2822     -0.0364      0.2822      0.0227
        10        -0.1551      0.2526      0.1108      0.1001      0.0082
        11         0.0831     -0.5162     -0.0767      0.2793      0.0235
        12         0.1291     -0.5026     -0.1316      0.2866      0.0244
        13        -0.0136      0.1275     -0.0114      0.0166      0.0014
        14         0.1764     -0.3197      0.0754      0.1390      0.0123
        15         0.2376      0.0181     -0.0321      0.0578      0.0052
        16         0.0515     -0.0320      0.0193      0.0040      0.0004
        17        -0.0047      0.0405     -0.0102      0.0018      0.0002
        18         0.0488      0.0114      0.0163      0.0028      0.0003
        19         0.0846      0.0320     -0.0116      0.0083      0.0008
        20         0.2016      0.1421      0.1870      0.0958      0.0093
        21        -0.0079      0.0775     -0.0015      0.0061      0.0006
        22         0.0393     -0.1655     -0.0207      0.0294      0.0029
        23         0.0739     -0.1739      0.0028      0.0357      0.0036
        24         0.0684      0.0522      0.0099      0.0075      0.0008
        25        -0.0120     -0.1355     -0.0208      0.0189      0.0019
 Ground to excited state transition velocity dipole moments (Au):
       state          X           Y           Z        Dip. S.      Osc.
         1         0.0006      0.0001     -0.0003      0.0000      0.0000
         2        -0.0011      0.0112     -0.0056      0.0002      0.0020
         3         0.0238     -0.0040     -0.0020      0.0006      0.0050
         4         0.0006      0.0091      0.0048      0.0001      0.0008
         5         0.0063     -0.0045      0.0013      0.0001      0.0004
         6        -0.0036      0.0085      0.0024      0.0001      0.0006
         7        -0.0054     -0.0224      0.0551      0.0036      0.0208
         8         0.0021      0.0050     -0.0061      0.0001      0.0004
         9         0.0381     -0.0298      0.0006      0.0023      0.0129
        10         0.0143     -0.0251     -0.0136      0.0010      0.0055
        11        -0.0146      0.0575      0.0050      0.0035      0.0188
        12        -0.0158      0.0544      0.0156      0.0035      0.0180
        13         0.0024     -0.0147      0.0003      0.0002      0.0011
        14        -0.0199      0.0317     -0.0103      0.0015      0.0075
        15        -0.0318     -0.0044      0.0021      0.0010      0.0051
        16        -0.0091      0.0015     -0.0017      0.0001      0.0004
        17         0.0007     -0.0046      0.0014      0.0000      0.0001
        18        -0.0053     -0.0013     -0.0026      0.0000      0.0002
        19        -0.0161     -0.0088      0.0021      0.0003      0.0016
        20        -0.0186     -0.0187     -0.0218      0.0012      0.0054
        21         0.0019     -0.0086     -0.0029      0.0001      0.0004
        22        -0.0081      0.0247      0.0041      0.0007      0.0031
        23        -0.0145      0.0216      0.0000      0.0007      0.0030
        24        -0.0097     -0.0100      0.0031      0.0002      0.0009
        25         0.0060      0.0164      0.0056      0.0003      0.0015
 Ground to excited state transition magnetic dipole moments (Au):
       state          X           Y           Z
         1        -0.1067      0.1190      0.6129
         2        -0.1755      0.1288      0.1584
         3         0.0985      1.0027     -0.2291
         4        -0.0545      0.3483      0.1479
         5         0.0173     -0.0166     -0.1353
         6        -0.0003     -0.0206      0.0147
         7        -0.1937      0.1181      0.0598
         8         0.0211      0.0351      0.0277
         9        -0.0811     -0.3636     -0.9463
        10        -0.0680     -0.0103     -0.1671
        11        -0.0357      0.2155     -0.4042
        12         0.0787     -0.0975     -0.0954
        13        -0.0326      0.0665     -0.0198
        14         0.3605     -0.0196      0.0713
        15         0.0804      0.1241      0.0065
        16         0.0891      0.0342      0.1556
        17        -0.0878     -0.0200     -0.0289
        18         0.0141      0.0472     -0.1078
        19         0.1553      0.0904      0.4310
        20         0.0665      0.3990     -0.1184
        21        -0.1251      0.0084     -0.1234
        22         0.0440     -0.1123      0.0403
        23         0.0964     -0.0438      0.0439
        24         0.1591      0.2214      0.3686
        25        -0.1683     -0.0752     -0.0460
 Ground to excited state transition velocity quadrupole moments (Au):
       state          XX          YY          ZZ          XY          XZ          YZ
         1        -0.0018     -0.0006      0.0003     -0.0082      0.0002      0.0018
         2         0.0439     -0.0176     -0.0129     -0.0112      0.0037      0.0049
         3        -0.0328      0.0089      0.0207     -0.0087      0.0531      0.0152
         4         0.0247     -0.0212      0.0111     -0.0176      0.0240      0.0035
         5        -0.0262      0.0145      0.0027      0.0063      0.0028      0.0024
         6         0.0002      0.0402     -0.0101     -0.0148     -0.0045     -0.0219
         7        -0.0349     -0.2155      0.1027      0.0846      0.0073     -0.0178
         8         0.0064      0.0375     -0.0138     -0.0163      0.0043      0.0020
         9         0.0161     -0.0318     -0.0037      0.0719     -0.0147      0.0455
        10         0.0333     -0.1125      0.0125      0.0514     -0.0012      0.0675
        11        -0.0143      0.2467     -0.0449     -0.0923     -0.0184     -0.0746
        12        -0.0297      0.2798     -0.0522     -0.1059     -0.0086     -0.1175
        13         0.0244     -0.0832      0.0111      0.0373     -0.0045      0.0236
        14         0.0561      0.1112     -0.0577     -0.0372     -0.0037     -0.0258
        15         0.2644     -0.0338     -0.0341      0.0419     -0.0104     -0.0136
        16         0.0272      0.0014     -0.0150     -0.0249     -0.0073      0.0137
        17         0.0153     -0.0138      0.0073      0.0119      0.0090      0.0003
        18         0.0321     -0.0149     -0.0035      0.0063     -0.0097      0.0107
        19         0.0548     -0.0483     -0.0053     -0.0671      0.0031      0.0542
        20         0.0282     -0.0204     -0.0195     -0.0098     -0.0486      0.0290
        21         0.0243     -0.0206      0.0062     -0.0172      0.0057      0.0204
        22         0.0169      0.1066     -0.0356     -0.0237      0.0057     -0.0266
        23         0.0399      0.1119     -0.0371     -0.0319      0.0033     -0.0126
        24         0.0078     -0.0641     -0.0002      0.0012     -0.0172      0.0102
        25        -0.0723      0.1050      0.0032     -0.0465      0.0246     -0.0640
 <0|del|b> * <b|rxdel|0> + <0|del|b> * <b|delr+rdel|0>
 Rotatory Strengths (R) in cgs (10**-40 erg-esu-cm/Gauss)
       state          XX          YY          ZZ    R(velocity)    E-M Angle
         1        -6.5004     -9.5537     -2.3229     -6.1257      122.56
         2         3.8359     -5.1252     11.3377      3.3495       77.25
         3       -15.1837     14.3208    -10.3539     -3.7389       92.83
         4        13.6766      2.8932     12.8299      9.7999       12.61
         5        -0.2824     -0.2092      0.5495      0.0193       90.00
         6        -0.4525      0.4941     -0.9555     -0.3046      125.19
         7        16.9381     -0.6645     -5.7467      3.5090       83.03
         8         0.2563     -0.6701      0.7172      0.1011       90.00
         9        28.8623     -5.7723     18.8779     13.9893       81.61
        10         5.1905      8.5373     -4.7884      2.9798       74.44
        11        30.7259      0.1185     30.1967     20.3471       66.55
        12       -22.0760      2.1578    -24.5799    -14.8327      150.28
        13        -2.8421     -0.1052     -2.8588     -1.9354      158.23
        14        -2.2837    -20.6530    -22.3610    -15.0993      126.65
        15        -1.2879     -5.7379     -9.1024     -5.3761      130.52
        16        -0.3917     -3.1463     -1.6443     -1.7274      126.47
        17         0.2790     -0.2854     -0.0193     -0.0086       90.00
        18         0.4599      0.3966     -0.1651      0.2305       78.72
        19        -0.0306     -5.7727     -6.0283     -3.9439      106.19
[...]
 Alpha virt. eigenvalues --    1.87159   1.87639   1.88190   1.89082   1.89625
 Alpha virt. eigenvalues --    1.89953   1.90236   1.91806   1.92325   1.92580
 Alpha virt. eigenvalues --    1.92818   1.94143   1.95235   1.95940   1.96350
 Alpha virt. eigenvalues --    1.96816   1.98364   1.98939   1.99291   2.00255
 Alpha virt. eigenvalues --    2.01109   2.01496   2.02180   2.02470   2.03513
 Alpha virt. eigenvalues --    2.03745   2.04786   2.04958   2.05680   2.06334
 Alpha virt. eigenvalues --    2.07044   2.07161   2.08046   2.08496   2.08886
 Alpha virt. eigenvalues --    2.09843   2.10250   2.11299   2.12282   2.12435
 Alpha virt. eigenvalues --    2.13771   2.14966   2.15586   2.16692   2.18278
 Alpha virt. eigenvalues --    2.18982   2.20265   2.21086   2.22258   2.22738
 Alpha virt. eigenvalues --    2.23311   2.23773   2.24943   2.25684   2.26450
 Alpha virt. eigenvalues --    2.26723   2.27792   2.28093   2.29398   2.29878
 Alpha virt. eigenvalues --    2.30089   2.31237   2.32639   2.33898   2.35648
 Alpha virt. eigenvalues --    2.38647   2.40004   2.41247   2.42064   2.42259
 Alpha virt. eigenvalues --    2.42611   2.42899   2.43238   2.43953   2.44619
 Alpha virt. eigenvalues --    2.45103   2.46014   2.46738   2.47143   2.47799
 Alpha virt. eigenvalues --    2.48370   2.48919   2.49463   2.50398   2.50781
 Alpha virt. eigenvalues --    2.51199   2.51948   2.52213   2.52931   2.54130
 Alpha virt. eigenvalues --    2.54411   2.55517   2.56092   2.56579   2.57065
 Alpha virt. eigenvalues --    2.57516   2.58136   2.58507   2.59048   2.60427
 Alpha virt. eigenvalues --    2.60649   2.60864   2.61756   2.62079   2.63169
 Alpha virt. eigenvalues --    2.64182   2.66121   2.67793   2.69256   2.69738
 Alpha virt. eigenvalues --    2.69805   2.70740   2.72420   2.72700   2.73900
 Alpha virt. eigenvalues --    2.74915   2.75962   2.77156   2.78320   2.80185
 Alpha virt. eigenvalues --    2.81450   2.81983   2.84455   2.84832   2.86518
 Alpha virt. eigenvalues --    2.88469   2.92267   2.97962   2.99456   3.02597
 Alpha virt. eigenvalues --    3.04596   3.11496   3.11992   3.14422   3.50448
 Alpha virt. eigenvalues --    3.56601   3.83212  34.84579  34.96240  35.02273
 Alpha virt. eigenvalues --   45.99415
  Beta  occ. eigenvalues --  -77.25836 -19.27403 -19.16833 -19.15337 -14.44469
  Beta  occ. eigenvalues --  -14.43678 -10.32671 -10.29689 -10.29205 -10.26453
  Beta  occ. eigenvalues --  -10.25917 -10.25739 -10.25567 -10.25531 -10.25188
  Beta  occ. eigenvalues --  -10.24967 -10.24936 -10.24737 -10.21989 -10.21893
  Beta  occ. eigenvalues --  -10.21867 -10.21846 -10.21840 -10.21356 -10.21156
  Beta  occ. eigenvalues --  -10.20875  -6.63792  -4.77431  -4.77342  -4.77130
  Beta  occ. eigenvalues --   -3.04768  -1.88657  -1.87453  -1.87103  -1.13934
  Beta  occ. eigenvalues --   -1.00955  -0.97022  -0.92750  -0.85413  -0.84376
  Beta  occ. eigenvalues --   -0.83924  -0.83435  -0.82590  -0.77851  -0.77120
  Beta  occ. eigenvalues --   -0.74250  -0.70601  -0.70471  -0.70183  -0.69525
  Beta  occ. eigenvalues --   -0.69265  -0.66219  -0.66059  -0.63288  -0.62268
  Beta  occ. eigenvalues --   -0.57699  -0.57267  -0.56130  -0.53454  -0.53134
  Beta  occ. eigenvalues --   -0.51949  -0.51052  -0.50179  -0.48617  -0.47692
  Beta  occ. eigenvalues --   -0.46504  -0.46166  -0.46060  -0.45715  -0.45386
  Beta  occ. eigenvalues --   -0.45013  -0.44873  -0.44311  -0.44154  -0.44010
  Beta  occ. eigenvalues --   -0.43233  -0.42980  -0.41954  -0.41867  -0.41160
  Beta  occ. eigenvalues --   -0.40595  -0.40088  -0.39309  -0.38958  -0.38443
  Beta  occ. eigenvalues --   -0.38310  -0.37913  -0.37889  -0.37002  -0.36754
  Beta  occ. eigenvalues --   -0.36531  -0.36018  -0.35708  -0.35018  -0.34711
  Beta  occ. eigenvalues --   -0.34363  -0.34312  -0.33568  -0.32956  -0.32870
  Beta  occ. eigenvalues --   -0.32502  -0.31908  -0.30226  -0.30123  -0.29153
  Beta  occ. eigenvalues --   -0.28334  -0.27238  -0.26849  -0.26219  -0.25485
  Beta  occ. eigenvalues --   -0.20146  -0.19436
  Beta virt. eigenvalues --   -0.08703  -0.03893  -0.01908   0.00040   0.00835
  Beta virt. eigenvalues --    0.01636   0.02841   0.03034   0.03811   0.04188
  Beta virt. eigenvalues --    0.06286   0.06993   0.08624   0.09262   0.09601
  Beta virt. eigenvalues --    0.09714   0.10068   0.11101   0.11183   0.11635
  Beta virt. eigenvalues --    0.11920   0.12093   0.12610   0.13069   0.13501
  Beta virt. eigenvalues --    0.13562   0.14210   0.14418   0.14745   0.15059
  Beta virt. eigenvalues --    0.15527   0.15828   0.16114   0.16726   0.17189
  Beta virt. eigenvalues --    0.17557   0.17956   0.18156   0.18523   0.18693
  Beta virt. eigenvalues --    0.18831   0.19293   0.19599   0.20106   0.20642
  Beta virt. eigenvalues --    0.20709   0.21077   0.21415   0.21763   0.21828
  Beta virt. eigenvalues --    0.22353   0.22429   0.23102   0.23570   0.23609
  Beta virt. eigenvalues --    0.23975   0.24266   0.24618   0.25211   0.25782
  Beta virt. eigenvalues --    0.26437   0.27137   0.27901   0.28254   0.28667
  Beta virt. eigenvalues --    0.29329   0.29620   0.30042   0.31559   0.31855
  Beta virt. eigenvalues --    0.32400   0.33024   0.33543   0.34663   0.35951
  Beta virt. eigenvalues --    0.36220   0.37200   0.38822   0.39834   0.41676
  Beta virt. eigenvalues --    0.42757   0.43099   0.43493   0.43934   0.44733
  Beta virt. eigenvalues --    0.45004   0.45951   0.46075   0.47189   0.48169
  Beta virt. eigenvalues --    0.48674   0.48802   0.49401   0.50376   0.50620
  Beta virt. eigenvalues --    0.51019   0.52177   0.52798   0.53212   0.53568
  Beta virt. eigenvalues --    0.54318   0.54910   0.54983   0.55837   0.56381
  Beta virt. eigenvalues --    0.56898   0.57690   0.58124   0.58716   0.58988
  Beta virt. eigenvalues --    0.59966   0.60551   0.60714   0.61380   0.61463
  Beta virt. eigenvalues --    0.62406   0.62498   0.62690   0.63518   0.63655
  Beta virt. eigenvalues --    0.63983   0.64415   0.64732   0.65150   0.65443
  Beta virt. eigenvalues --    0.66064   0.66324   0.66462   0.66580   0.66994
  Beta virt. eigenvalues --    0.67072   0.67281   0.67441   0.67717   0.67971
  Beta virt. eigenvalues --    0.68394   0.68593   0.69455   0.69818   0.70092
  Beta virt. eigenvalues --    0.70107   0.70593   0.70923   0.71810   0.72197
  Beta virt. eigenvalues --    0.72596   0.73449   0.73756   0.73841   0.74321
  Beta virt. eigenvalues --    0.74379   0.74528   0.75354   0.75610   0.75956
  Beta virt. eigenvalues --    0.76500   0.76638   0.77319   0.78143   0.78533
  Beta virt. eigenvalues --    0.79060   0.79471   0.80129   0.80549   0.80637
  Beta virt. eigenvalues --    0.81399   0.81960   0.82354   0.83497   0.83905
  Beta virt. eigenvalues --    0.84387   0.85317   0.85634   0.86027   0.86709
  Beta virt. eigenvalues --    0.87194   0.87652   0.88455   0.89485   0.90281
  Beta virt. eigenvalues --    0.90624   0.91136   0.92279   0.92697   0.93494
  Beta virt. eigenvalues --    0.94150   0.94382   0.95200   0.95727   0.96282
  Beta virt. eigenvalues --    0.96447   0.98094   0.98346   0.99803   1.01293
  Beta virt. eigenvalues --    1.01903   1.02136   1.02829   1.03217   1.03596
  Beta virt. eigenvalues --    1.04457   1.05941   1.06420   1.06948   1.07985
  Beta virt. eigenvalues --    1.08157   1.10008   1.10734   1.11715   1.12290
  Beta virt. eigenvalues --    1.12869   1.13800   1.14555   1.15224   1.16218
  Beta virt. eigenvalues --    1.17574   1.18819   1.20525   1.22116   1.22858
  Beta virt. eigenvalues --    1.23648   1.24175   1.25360   1.25805   1.26379
  Beta virt. eigenvalues --    1.27199   1.27705   1.29779   1.29930   1.30145
  Beta virt. eigenvalues --    1.31152   1.31758   1.32118   1.33126   1.34195
  Beta virt. eigenvalues --    1.34980   1.35254   1.35654   1.37146   1.37451
  Beta virt. eigenvalues --    1.37809   1.38966   1.39258   1.39835   1.41004
  Beta virt. eigenvalues --    1.41328   1.42212   1.42531   1.43013   1.43785
  Beta virt. eigenvalues --    1.44233   1.44417   1.45160   1.45579   1.45942
  Beta virt. eigenvalues --    1.46244   1.46827   1.47337   1.48061   1.48559
  Beta virt. eigenvalues --    1.49598   1.50292   1.50546   1.51303   1.51943
  Beta virt. eigenvalues --    1.52504   1.53303   1.54130   1.54423   1.54836
  Beta virt. eigenvalues --    1.54960   1.56171   1.56992   1.57407   1.58512
  Beta virt. eigenvalues --    1.59023   1.59810   1.60294   1.61245   1.61617
  Beta virt. eigenvalues --    1.62479   1.62921   1.63266   1.64131   1.64822
  Beta virt. eigenvalues --    1.65723   1.66039   1.66472   1.67102   1.67364
  Beta virt. eigenvalues --    1.68596   1.68821   1.69297   1.69417   1.69719
  Beta virt. eigenvalues --    1.70322   1.70470   1.71487   1.71901   1.71988
  Beta virt. eigenvalues --    1.72614   1.73200   1.73376   1.73906   1.74146
  Beta virt. eigenvalues --    1.74700   1.75078   1.76026   1.76194   1.76426
  Beta virt. eigenvalues --    1.76707   1.77004   1.77498   1.77705   1.78091
  Beta virt. eigenvalues --    1.78556   1.78931   1.79199   1.80141   1.80738
  Beta virt. eigenvalues --    1.81463   1.81560   1.82371   1.83021   1.83187
  Beta virt. eigenvalues --    1.83580   1.84545   1.84891   1.86098   1.86424
  Beta virt. eigenvalues --    1.86886   1.87267   1.87807   1.88201   1.89130
  Beta virt. eigenvalues --    1.89659   1.90097   1.90283   1.91845   1.92336
  Beta virt. eigenvalues --    1.92611   1.92841   1.94192   1.95294   1.95956
  Beta virt. eigenvalues --    1.96403   1.96897   1.98391   1.98968   1.99322
  Beta virt. eigenvalues --    2.00282   2.01143   2.01509   2.02191   2.02545
  Beta virt. eigenvalues --    2.03564   2.03770   2.04809   2.05009   2.05695
  Beta virt. eigenvalues --    2.06372   2.07072   2.07196   2.08149   2.08553
  Beta virt. eigenvalues --    2.08918   2.09876   2.10269   2.11331   2.12348
  Beta virt. eigenvalues --    2.12488   2.13857   2.15056   2.15627   2.16806
  Beta virt. eigenvalues --    2.18313   2.19024   2.20318   2.21181   2.22292
  Beta virt. eigenvalues --    2.22768   2.23413   2.23924   2.24962   2.25750
  Beta virt. eigenvalues --    2.26542   2.26805   2.27830   2.28143   2.29541
  Beta virt. eigenvalues --    2.29896   2.30144   2.31318   2.32792   2.34427
  Beta virt. eigenvalues --    2.35835   2.38760   2.40036   2.41311   2.42110
  Beta virt. eigenvalues --    2.42345   2.42649   2.42949   2.43293   2.44023
  Beta virt. eigenvalues --    2.44635   2.45154   2.46073   2.46892   2.47198
  Beta virt. eigenvalues --    2.47862   2.48373   2.48946   2.49472   2.50490
  Beta virt. eigenvalues --    2.50795   2.51266   2.51996   2.52259   2.53109
  Beta virt. eigenvalues --    2.54305   2.54498   2.55537   2.56211   2.56610
  Beta virt. eigenvalues --    2.57091   2.57635   2.58223   2.58642   2.59137
  Beta virt. eigenvalues --    2.60651   2.60742   2.60998   2.62108   2.62469
  Beta virt. eigenvalues --    2.63343   2.64370   2.66241   2.68697   2.69461
  Beta virt. eigenvalues --    2.69865   2.70557   2.71102   2.72585   2.74311
  Beta virt. eigenvalues --    2.75008   2.76151   2.77357   2.79034   2.79301
  Beta virt. eigenvalues --    2.80619   2.81592   2.83161   2.84959   2.86965
  Beta virt. eigenvalues --    2.87170   2.90983   2.92752   2.98969   3.00022
  Beta virt. eigenvalues --    3.02824   3.04954   3.11794   3.12291   3.15854
  Beta virt. eigenvalues --    3.50454   3.56706   3.83216  34.84704  34.96345
  Beta virt. eigenvalues --   35.02422  45.99523
          Condensed to atoms (all electrons):
          Atomic-Atomic Spin Densities.
 Mulliken charges and spin densities:
               1          2
     1  H    0.056806   0.000156
     2  C   -0.120542   0.000059
     3  H    0.059421   0.000649
     4  H    0.100450   0.000124
     5  H    0.102011  -0.002609
     6  O   -0.478368  -0.001464
     7  H    0.066984   0.000009
     8  O   -0.459760   0.853712
     9  C   -0.000490   0.008011
    10  H    0.048882   0.000441
    11  H    0.051902  -0.000335
    12  C   -0.026706   0.015420
    13  H    0.079120  -0.000012
    14  H    0.051352   0.000281
    15  H    0.087104  -0.000316
    16  C   -0.019086   0.000104
    17  H    0.053620  -0.000022
    18  H    0.114441  -0.001775
    19  Ru   0.048070   0.051314
    20  H    0.088102  -0.003232
    21  N   -0.380919   0.020391
    22  C    0.119956   0.012009
    23  C   -0.451821   0.001111
    24  H    0.046431   0.000550
    25  H    0.045331   0.000001
    26  C   -0.032421   0.005505
    27  C   -0.465745  -0.000615
    28  P    0.233647   0.003670
    29  H    0.073231  -0.001000
    30  C   -0.001307  -0.000064
    31  H    0.098000   0.000654
    32  H    0.064375  -0.000008
    33  H    0.050257  -0.000085
    34  C   -0.043720  -0.001677
    35  H    0.049341   0.000225
    36  C    0.017721   0.013532
    37  C    0.000319   0.001174
    38  H    0.084927   0.000414
    39  C   -0.011295   0.000129
    40  H    0.064702  -0.000052
    41  H    0.053078   0.000155
    42  C    0.036621  -0.003705
    43  N   -0.313819   0.000284
    44  C   -0.077826   0.000010
    45  H    0.059653   0.000180
    46  H    0.106893  -0.000162
    47  H    0.058291   0.000010
    48  H    0.064051  -0.000009
    49  C   -0.091999   0.000043
    50  H    0.063908   0.000231
    51  H    0.061721   0.000031
    52  C    0.069988  -0.001671
    53  C   -0.047149   0.002832
    54  H    0.066459  -0.000002
    55  H    0.035879  -0.000105
    56  H    0.132523  -0.000140
    57  H    0.098314  -0.000135
    58  C   -0.044600   0.003025
    59  C    0.081665  -0.002476
    60  H    0.036034  -0.000164
    61  H    0.048358   0.000107
    62  O   -0.149456   0.025538
    63  H    0.187092  -0.000260
 Sum of Mulliken charges =  -0.00000   1.00000
 Mulliken charges and spin densities with hydrogens summed into heavy atoms:
               1          2
     2  C    0.096135   0.000988
     6  O   -0.291276  -0.001724
     8  O   -0.459760   0.853712
     9  C    0.138516   0.007360
    12  C    0.175539   0.013534
    16  C    0.180639   0.000079
    19  Ru   0.048070   0.051314
    21  N   -0.380919   0.020391
    22  C    0.307628   0.009235
    23  C   -0.451821   0.001111
    26  C    0.161765   0.003004
    27  C   -0.465745  -0.000615
    28  P    0.233647   0.003670
    30  C    0.152572  -0.000138
    34  C    0.161173  -0.001185
    36  C    0.017721   0.013532
    37  C    0.176083   0.001378
    39  C    0.193169   0.000696
    42  C    0.036621  -0.003705
    43  N   -0.313819   0.000284
    44  C    0.114507   0.000224
    49  C    0.138838  -0.000233
    52  C    0.069988  -0.001671
    53  C   -0.011271   0.002728
    58  C   -0.008566   0.002862
    59  C    0.130023  -0.002368
    62  O   -0.149456   0.025538
 Electronic spatial extent (au):  <R**2>=           9642.9298
 Charge=             -0.0000 electrons
 Dipole moment (field-independent basis, Debye):
    X=              1.6258    Y=             10.9966    Z=             -7.0562  Tot=             13.1666
 Quadrupole moment (field-independent basis, Debye-Ang):
   XX=           -144.7380   YY=           -177.5442   ZZ=           -201.4883
   XY=             -8.7651   XZ=             -4.2205   YZ=              2.3123
 Traceless Quadrupole moment (field-independent basis, Debye-Ang):
   XX=             29.8522   YY=             -2.9541   ZZ=            -26.8982
   XY=             -8.7651   XZ=             -4.2205   YZ=              2.3123
 Octapole moment (field-independent basis, Debye-Ang**2):
  XXX=            -61.4115  YYY=             85.0909  ZZZ=            -10.5215  XYY=            -13.5701
  XXY=              0.8585  XXZ=              3.3861  XZZ=             11.0685  YZZ=             11.1450
  YYZ=            -42.4946  XYZ=              1.8316
 Hexadecapole moment (field-independent basis, Debye-Ang**3):
 XXXX=          -6740.0749 YYYY=          -3272.9752 ZZZZ=          -2330.8687 XXXY=            -46.7448
 XXXZ=            -27.6723 YYYX=           -136.3677 YYYZ=            -56.7984 ZZZX=            -15.1485
 ZZZY=              1.4660 XXYY=          -1666.0486 XXZZ=          -1501.8319 YYZZ=           -992.7900
 XXYZ=             28.0733 YYXZ=            -28.6506 ZZXY=             19.7682
 N-N= 3.467586547742D+03 E-N=-1.054924966109D+04  KE= 1.484641783393D+03
 1\1\GINC-NODE251\SP\UPBE1PBE TD-FC\GenECP\C20H36N2O3P1Ru1(2)\JS1212\29
 -Jul-2020\0\\# genecp pbe1pbe EmpiricalDispersion=GD3BJ scrf=(SMD,solv
 ent=water) td=nstates=25 geom=allcheck\\Title Card Required\\0,2\H,0,-
 3.6905370104,-3.2718121937,1.8378939994\C,0,-3.3750603622,-2.685454136
 7,0.9618846844\H,0,-4.1113387957,-2.8691398049,0.1634869095\H,0,-2.374
 6109988,-3.0338762746,0.6565966198\H,0,1.4247838842,-0.6991579822,2.73
 60524122\O,0,-0.3111875734,-2.5739048286,0.7056376432\H,0,4.291650212,
 -1.7399433226,0.7433414845\O,0,-0.5290884211,-0.1466908447,2.008668698
 3\C,0,-3.286645055,-1.2291937711,1.3636540336\H,0,2.8035005633,0.08639
 67164,3.5642871307\H,0,-4.274928125,-0.8341722834,1.6735422082\C,0,2.4
 69677188,-0.3772575096,2.6204087601\H,0,2.805032851,-2.7019124416,0.54
 25041296\H,0,3.1047836814,-1.2537143263,2.4394891715\H,0,-2.5916800383
 ,-1.1179422106,2.209608011\C,0,3.6133707732,-2.1845477548,0.0031756433
 \H,0,4.1866877437,-2.9404108573,-0.5587684928\H,0,-2.3442066369,0.9994
 248313,1.8101545235\Ru,0,-0.41404302,-0.6093825467,0.1075359764\H,0,0.
 6843492306,1.5905802524,2.0610910937\N,0,-2.7243793087,-0.3571728703,0
 .3070679105\C,0,-2.7561181144,1.0347856027,0.7858412475\C,0,2.57342042
 57,0.6673985977,1.5035791596\H,0,2.1253648269,2.2725304057,2.858616672
 1\H,0,4.7806497876,0.2266488535,-0.9097432633\C,0,1.7312962676,1.88550
 3926,1.9041121239\C,0,3.0563050066,-1.1514469836,-0.9795605487\P,0,1.7
 907048977,-0.0607076035,-0.0685787618\H,0,-3.780793841,1.4411316161,0.
 8306626656\C,0,4.1897841787,-0.3521368809,-1.6279532531\H,0,-3.2075426
 933,-1.4945356447,-1.3689820507\H,0,-5.455570938,-0.9493970981,-0.3428
 232244\H,0,4.8750659516,-1.0557198651,-2.1298116335\C,0,-3.4176240391,
 -0.486030416,-0.9902782315\H,0,4.336736522,1.6253379544,2.2618596968\C
 ,0,-0.5704193252,-1.0986499252,-1.6911688577\C,0,4.0209146233,1.124955
 7655,1.3311708479\H,0,1.5506960494,-2.5741163322,-1.6879240889\C,0,2.3
 26695817,-1.909174758,-2.0890535612\H,0,4.7166441883,0.2920994008,1.16
 15940841\H,0,3.0603555765,-2.5292436982,-2.6301298277\C,0,-1.856281482
 ,1.935364931,-0.0054941633\N,0,-0.6718093197,1.3877288534,-0.342911470
 5\C,0,-4.9188937826,-0.2373850401,-0.9864212744\H,0,1.7953862868,2.703
 7168585,1.1702746451\H,0,-2.9260195994,0.2128660184,-1.6847885851\H,0,
 3.8149060543,0.3355544782,-2.4010114787\H,0,-5.1827773848,0.7808598541
 ,-0.6630532963\C,0,1.5870046894,1.4121293425,-1.2174407122\H,0,-5.3031
 142377,-0.3619123948,-2.0099828958\H,0,4.1410594861,1.85497739,0.51517
 64443\C,0,0.2945019553,2.1208632007,-0.9339160368\C,0,-2.1372767347,3.
 263338482,-0.3040780224\H,0,1.8558095528,-1.2415668482,-2.8243634354\H
 ,0,-3.1062404601,3.6857758984,-0.036004528\H,0,1.5391875809,0.97534080
 09,-2.2301458637\H,0,2.4337011065,2.1146010147,-1.2038502189\C,0,0.069
 6657727,3.4615280464,-1.2386096679\C,0,-1.1607305597,4.034232328,-0.93
 03609289\H,0,0.8582110662,4.0464527196,-1.7131678465\H,0,-1.3554184276
 ,5.080575409,-1.1717472413\O,0,-0.7719678527,-1.3864457527,-2.79752808
 31\H,0,0.28790034,-3.0674143473,0.1340329141\\Version=ES64L-G16RevA.03
 \State=2-A\HF=-1554.0257656\S2=0.757758\S2-1=0.\S2A=0.75004\RMSD=1.636
 e-09\PG=C01 [X(C20H36N2O3P1Ru1)]\\@


 LAW OF COMPENSATION:
      NO CALCULATION IS EVER A COMPLETE FAILURE; IT 
      CAN ALWAYS SERVE AS A BAD EXAMPLE.

                                           -- ANON
 Job cpu time:       1 days 18 hours 21 minutes 32.9 seconds.
 Elapsed time:       0 days  2 hours  7 minutes 19.4 seconds.
 File lengths (MBytes):  RWF=   4596 Int=      0 D2E=      0 Chk=    351 Scr=      1
 Normal termination of Gaussian 16 at Wed Jul 29 10:26:36 2020.
